
     Program PWSCF v.7.2 starts on 29Nov2024 at 15:19: 7 

     This program is part of the open-source Quantum ESPRESSO suite
     for quantum simulation of materials; please cite
         "P. Giannozzi et al., J. Phys.:Condens. Matter 21 395502 (2009);
         "P. Giannozzi et al., J. Phys.:Condens. Matter 29 465901 (2017);
         "P. Giannozzi et al., J. Chem. Phys. 152 154105 (2020);
          URL http://www.quantum-espresso.org", 
     in publications or presentations arising from this work. More details at
     http://www.quantum-espresso.org/quote

     Parallel version (MPI), running on     4 processors

     MPI processes distributed on     1 nodes
     284932 MiB available memory on the printing compute node when the environment starts
 
     Waiting for input...
     Reading input from standard input
Warning: card &CELL ignored
Warning: card    CELL_DYNAMICS = 'BFGS' , ignored
Warning: card    CELL_FACTOR = 1.5, ignored
Warning: card    PRESS = 0 , ignored
Warning: card / ignored

     Current dimensions of program PWSCF are:
     Max number of different atomic species (ntypx) = 10
     Max number of k-points (npk) =  40000
     Max angular momentum in pseudopotentials (lmaxx) =  4
     Message from routine iosys:
     pot_extrapolation='first_order' not available, using 'atomic'
     Found identity + (  0.0000 -0.5000  0.5000) symmetry
     This is a supercell, fractional translations are disabled
     Message from routine setup:
     using ibrav=0 with symmetry is DISCOURAGED, use correct ibrav instead
 
     R & G space division:  proc/nbgrp/npool/nimage =       4
     Subspace diagonalization in iterative solution of the eigenvalue problem:
     a serial algorithm will be used

 
     Parallelization info
     --------------------
     sticks:   dense  smooth     PW     G-vecs:    dense   smooth      PW
     Min         217     217     61                 4839     4839     742
     Max         219     219     64                 4840     4840     743
     Sum         873     873    249                19357    19357    2969
 
     Using Slab Decomposition
 


     bravais-lattice index     =            0
     lattice parameter (alat)  =       6.7471  a.u.
     unit-cell volume          =     307.7163 (a.u.)^3
     number of atoms/cell      =            8
     number of atomic types    =            1
     number of electrons       =        32.00
     number of Kohn-Sham states=           20
     kinetic-energy cutoff     =      60.0000  Ry
     charge density cutoff     =     240.0000  Ry
     scf convergence threshold =      1.0E-12
     mixing beta               =       0.3000
     number of iterations used =            8  plain     mixing
     energy convergence thresh.=      1.0E-05
     force convergence thresh. =      1.0E-04
     Exchange-correlation= PBE
                           (   1   4   3   4   0   0   0)
     nstep                     =          100


     celldm(1)=   6.747054  celldm(2)=   0.000000  celldm(3)=   0.000000
     celldm(4)=   0.000000  celldm(5)=   0.000000  celldm(6)=   0.000000

     crystal axes: (cart. coord. in units of alat)
               a(1) = (   1.000000   0.000000   0.000000 )  
               a(2) = (   0.000000   1.000931   0.000000 )  
               a(3) = (   0.000000   0.000000   1.000931 )  

     reciprocal axes: (cart. coord. in units 2 pi/alat)
               b(1) = (  1.000000  0.000000  0.000000 )  
               b(2) = (  0.000000  0.999070  0.000000 )  
               b(3) = (  0.000000  0.000000  0.999070 )  


     PseudoPot. # 1 for C  read from file:
     ./C.pbe-n-rrkjus_psl.1.0.0.UPF
     MD5 check sum: 1fdd950c42eb37d8afe3dd2f8d12311e
     Pseudo is Ultrasoft + core correction, Zval =  4.0
     Generated using &quot;atomic&quot; code by A. Dal Corso  v.6.3MaX
     Using radial grid of 1073 points,  4 beta functions with: 
                l(1) =   0
                l(2) =   0
                l(3) =   1
                l(4) =   1
     Q(r) pseudized with 0 coefficients 


     atomic species   valence    mass     pseudopotential
        C              4.00    12.00000     C ( 1.00)

      8 Sym. Ops. (no inversion) found



   Cartesian axes

     site n.     atom                  positions (alat units)
         1           C   tau(   1) = (   0.2500000   0.7506980   0.2502327  )
         2           C   tau(   2) = (   0.0000000   0.0000000   0.5004653  )
         3           C   tau(   3) = (   0.2500000   0.2502327   0.7506980  )
         4           C   tau(   4) = (   0.0000000   0.5004653   0.0000000  )
         5           C   tau(   5) = (   0.7500000   0.7506980   0.7506980  )
         6           C   tau(   6) = (   0.5000000   0.0000000   0.0000000  )
         7           C   tau(   7) = (   0.7500000   0.2502327   0.2502327  )
         8           C   tau(   8) = (   0.5000000   0.5004653   0.5004653  )

     number of k points=     6  Gaussian smearing, width (Ry)=  0.0500
                       cart. coord. in units 2pi/alat
        k(    1) = (   0.1250000   0.1248838   0.1248838), wk =   0.2500000
        k(    2) = (   0.1250000   0.1248838   0.3746513), wk =   0.5000000
        k(    3) = (   0.1250000   0.3746513   0.3746513), wk =   0.2500000
        k(    4) = (   0.3750000   0.1248838   0.1248838), wk =   0.2500000
        k(    5) = (   0.3750000   0.1248838   0.3746513), wk =   0.5000000
        k(    6) = (   0.3750000   0.3746513   0.3746513), wk =   0.2500000

     Dense  grid:    19357 G-vectors     FFT dimensions: (  36,  36,  36)

     Estimated max dynamical RAM per process >       9.89 MB

     Estimated total dynamical RAM >      39.55 MB

     Check: negative core charge=   -0.000040

     Initial potential from superposition of free atoms

     starting charge      31.9997, renormalised to      32.0000
     Starting wfcs are   32 randomized atomic wfcs

     total cpu time spent up to now is        0.5 secs

     Self-consistent Calculation

     iteration #  1     ecut=    60.00 Ry     beta= 0.30
     Davidson diagonalization with overlap
     ethr =  1.00E-02,  avg # of iterations =  2.3

     total cpu time spent up to now is        0.8 secs

     total energy              =     -99.40593062 Ry
     estimated scf accuracy    <       0.45326875 Ry

     iteration #  2     ecut=    60.00 Ry     beta= 0.30
     Davidson diagonalization with overlap
     ethr =  1.42E-03,  avg # of iterations =  1.0

     total cpu time spent up to now is        1.1 secs

     total energy              =     -99.33298242 Ry
     estimated scf accuracy    <       0.18390949 Ry

     iteration #  3     ecut=    60.00 Ry     beta= 0.30
     Davidson diagonalization with overlap
     ethr =  5.75E-04,  avg # of iterations =  4.0

     total cpu time spent up to now is        1.4 secs

     total energy              =     -99.34977104 Ry
     estimated scf accuracy    <       0.00155505 Ry

     iteration #  4     ecut=    60.00 Ry     beta= 0.30
     Davidson diagonalization with overlap
     ethr =  4.86E-06,  avg # of iterations =  8.8

     total cpu time spent up to now is        1.8 secs

     total energy              =     -99.34994693 Ry
     estimated scf accuracy    <       0.00093016 Ry

     iteration #  5     ecut=    60.00 Ry     beta= 0.30
     Davidson diagonalization with overlap
     ethr =  2.91E-06,  avg # of iterations =  2.0

     total cpu time spent up to now is        2.1 secs

     total energy              =     -99.35003561 Ry
     estimated scf accuracy    <       0.00000273 Ry

     iteration #  6     ecut=    60.00 Ry     beta= 0.30
     Davidson diagonalization with overlap
     ethr =  8.54E-09,  avg # of iterations =  3.8

     total cpu time spent up to now is        2.4 secs

     total energy              =     -99.35003873 Ry
     estimated scf accuracy    <       0.00000668 Ry

     iteration #  7     ecut=    60.00 Ry     beta= 0.30
     Davidson diagonalization with overlap
     ethr =  8.54E-09,  avg # of iterations =  2.0

     total cpu time spent up to now is        2.7 secs

     total energy              =     -99.35003976 Ry
     estimated scf accuracy    <       0.00000016 Ry

     iteration #  8     ecut=    60.00 Ry     beta= 0.30
     Davidson diagonalization with overlap
     ethr =  4.92E-10,  avg # of iterations =  1.8

     total cpu time spent up to now is        2.9 secs

     total energy              =     -99.35003978 Ry
     estimated scf accuracy    <          9.6E-09 Ry

     iteration #  9     ecut=    60.00 Ry     beta= 0.30
     Davidson diagonalization with overlap
     ethr =  3.00E-11,  avg # of iterations =  2.2

     total cpu time spent up to now is        3.3 secs

     total energy              =     -99.35003978 Ry
     estimated scf accuracy    <          5.2E-09 Ry

     iteration # 10     ecut=    60.00 Ry     beta= 0.30
     Davidson diagonalization with overlap
     ethr =  1.62E-11,  avg # of iterations =  1.0

     total cpu time spent up to now is        3.5 secs

     total energy              =     -99.35003978 Ry
     estimated scf accuracy    <          3.8E-09 Ry

     iteration # 11     ecut=    60.00 Ry     beta= 0.30
     Davidson diagonalization with overlap
     ethr =  1.20E-11,  avg # of iterations =  2.0

     total cpu time spent up to now is        3.8 secs

     total energy              =     -99.35003978 Ry
     estimated scf accuracy    <          3.5E-10 Ry

     iteration # 12     ecut=    60.00 Ry     beta= 0.30
     Davidson diagonalization with overlap
     ethr =  1.08E-12,  avg # of iterations =  2.2

     total cpu time spent up to now is        4.1 secs

     total energy              =     -99.35003978 Ry
     estimated scf accuracy    <          9.9E-11 Ry

     iteration # 13     ecut=    60.00 Ry     beta= 0.30
     Davidson diagonalization with overlap
     ethr =  3.09E-13,  avg # of iterations =  2.0

     total cpu time spent up to now is        4.4 secs

     total energy              =     -99.35003978 Ry
     estimated scf accuracy    <          1.0E-11 Ry

     iteration # 14     ecut=    60.00 Ry     beta= 0.30
     Davidson diagonalization with overlap
     ethr =  1.00E-13,  avg # of iterations =  1.0

     total cpu time spent up to now is        4.7 secs

     End of self-consistent calculation

          k = 0.1250 0.1249 0.1249 (  2420 PWs)   bands (ev):

    -7.7204  -1.1696  -1.1696  -1.1585   2.6033   2.6033   2.6169   5.9302
     5.9388   5.9388   7.3376   7.3512   7.3512  10.8413  12.5901  12.6004
    18.2285  18.2505  18.2505  19.6878

          k = 0.1250 0.1249 0.3747 (  2419 PWs)   bands (ev):

    -6.5833  -4.3552  -0.4340  -0.4265   2.1157   2.1163   4.8709   4.8747
     5.7523   6.9207   6.9308   8.0417   8.1782   8.4173  10.3860  11.2163
    18.4391  19.0924  20.7713  20.7896

          k = 0.1250 0.3747 0.3747 (  2414 PWs)   bands (ev):

    -5.4670  -3.3092  -3.3092  -1.4656   1.7079   3.4401   3.4401   5.5142
     5.5434   6.9982   6.9982   8.9054   9.0488   9.1743   9.1743  11.4033
    20.0934  21.2176  21.2176  21.3612

          k = 0.3750 0.1249 0.1249 (  2419 PWs)   bands (ev):

    -6.5812  -4.3491  -0.4337  -0.4337   2.1132   2.1132   4.8693   4.8693
     5.7533   6.9272   6.9272   8.0489   8.1756   8.4054  10.3768  11.2274
    18.4184  19.0760  20.7982  20.7982

          k = 0.3750 0.1249 0.3747 (  2415 PWs)   bands (ev):

    -5.4649  -3.3074  -3.3035  -1.4625   1.7009   3.4330   3.4352   5.5097
     5.5300   6.9882   6.9883   8.8951   9.0628   9.1820   9.1868  11.4155
    20.1150  21.2025  21.2232  21.3585

          k = 0.3750 0.3747 0.3747 (  2398 PWs)   bands (ev):

    -4.3869  -2.4604  -2.4604  -2.4575   0.7413   0.7439   0.7439   2.6143
     9.1050   9.1050   9.1197   9.7254   9.7381   9.7381  10.7175  10.7330
    20.8583  20.8736  20.8737  21.6289

     the Fermi energy is    15.4016 ev

!    total energy              =     -99.35003978 Ry
     estimated scf accuracy    <          7.3E-13 Ry
     smearing contrib. (-TS)   =      -0.00000000 Ry
     internal energy E=F+TS    =     -99.35003978 Ry

     The total energy is F=E-TS. E is the sum of the following terms:
     one-electron contribution =      32.46857081 Ry
     hartree contribution      =       7.79106369 Ry
     xc contribution           =     -37.47876216 Ry
     ewald contribution        =    -102.13091212 Ry

     convergence has been achieved in  14 iterations

     Forces acting on atoms (cartesian axes, Ry/au):

     atom    1 type  1   force =    -0.00000005   -0.00000008    0.00000008
     atom    2 type  1   force =     0.00000000    0.00000000    0.00000000
     atom    3 type  1   force =    -0.00000005    0.00000008   -0.00000008
     atom    4 type  1   force =     0.00000000    0.00000000    0.00000000
     atom    5 type  1   force =     0.00000005   -0.00000008   -0.00000008
     atom    6 type  1   force =     0.00000000    0.00000000    0.00000000
     atom    7 type  1   force =     0.00000005    0.00000008    0.00000008
     atom    8 type  1   force =     0.00000000    0.00000000    0.00000000
     The non-local contrib.  to forces
     atom    1 type  1   force =    -0.00000021   -0.00000020    0.00000020
     atom    2 type  1   force =     0.00000000    0.00000000    0.00000000
     atom    3 type  1   force =    -0.00000021    0.00000020   -0.00000020
     atom    4 type  1   force =     0.00000000    0.00000000    0.00000000
     atom    5 type  1   force =     0.00000021   -0.00000020   -0.00000020
     atom    6 type  1   force =     0.00000000    0.00000000    0.00000000
     atom    7 type  1   force =     0.00000021    0.00000020    0.00000020
     atom    8 type  1   force =     0.00000000    0.00000000    0.00000000
     The ionic contribution  to forces
     atom    1 type  1   force =    -0.00000000   -0.00000000   -0.00000000
     atom    2 type  1   force =    -0.00000000    0.00000000   -0.00000000
     atom    3 type  1   force =    -0.00000000   -0.00000000    0.00000000
     atom    4 type  1   force =    -0.00000000   -0.00000000   -0.00000000
     atom    5 type  1   force =    -0.00000000    0.00000000    0.00000000
     atom    6 type  1   force =    -0.00000000    0.00000000   -0.00000000
     atom    7 type  1   force =    -0.00000000   -0.00000000   -0.00000000
     atom    8 type  1   force =    -0.00000000   -0.00000000   -0.00000000
     The local contribution  to forces
     atom    1 type  1   force =    -0.00000023   -0.00000018    0.00000018
     atom    2 type  1   force =     0.00000000    0.00000000   -0.00000000
     atom    3 type  1   force =    -0.00000023    0.00000018   -0.00000018
     atom    4 type  1   force =     0.00000000   -0.00000000   -0.00000000
     atom    5 type  1   force =     0.00000023   -0.00000018   -0.00000018
     atom    6 type  1   force =     0.00000000    0.00000000   -0.00000000
     atom    7 type  1   force =     0.00000023    0.00000018    0.00000018
     atom    8 type  1   force =     0.00000000   -0.00000000    0.00000000
     The core correction contribution to forces
     atom    1 type  1   force =     0.00000001    0.00000001   -0.00000001
     atom    2 type  1   force =    -0.00000000    0.00000000    0.00000000
     atom    3 type  1   force =     0.00000001   -0.00000001    0.00000001
     atom    4 type  1   force =    -0.00000000    0.00000000    0.00000000
     atom    5 type  1   force =    -0.00000001    0.00000001    0.00000001
     atom    6 type  1   force =    -0.00000000    0.00000000    0.00000000
     atom    7 type  1   force =    -0.00000001   -0.00000001   -0.00000001
     atom    8 type  1   force =     0.00000000    0.00000000    0.00000000
     The Hubbard contrib.    to forces
     atom    1 type  1   force =     0.00000000    0.00000000    0.00000000
     atom    2 type  1   force =     0.00000000    0.00000000    0.00000000
     atom    3 type  1   force =     0.00000000    0.00000000    0.00000000
     atom    4 type  1   force =     0.00000000    0.00000000    0.00000000
     atom    5 type  1   force =     0.00000000    0.00000000    0.00000000
     atom    6 type  1   force =     0.00000000    0.00000000    0.00000000
     atom    7 type  1   force =     0.00000000    0.00000000    0.00000000
     atom    8 type  1   force =     0.00000000    0.00000000    0.00000000
     The SCF correction term to forces
     atom    1 type  1   force =     0.00000039    0.00000029   -0.00000029
     atom    2 type  1   force =     0.00000000   -0.00000000   -0.00000000
     atom    3 type  1   force =     0.00000039   -0.00000029    0.00000029
     atom    4 type  1   force =     0.00000000    0.00000000   -0.00000000
     atom    5 type  1   force =    -0.00000039    0.00000029    0.00000029
     atom    6 type  1   force =     0.00000000    0.00000000   -0.00000000
     atom    7 type  1   force =    -0.00000039   -0.00000029   -0.00000029
     atom    8 type  1   force =     0.00000000    0.00000000   -0.00000000

     Total force =     0.000000     Total SCF correction =     0.000001
     SCF correction compared to forces is large: reduce conv_thr to get better values


     Computing stress (Cartesian axis) and pressure

          total   stress  (Ry/bohr**3)                   (kbar)     P=       -8.24
  -0.00001695   0.00000000   0.00000000           -2.49        0.00        0.00
   0.00000000  -0.00007559   0.00000000            0.00      -11.12        0.00
   0.00000000   0.00000000  -0.00007559            0.00        0.00      -11.12


     BFGS Geometry Optimization
     Energy error            =      0.0E+00 Ry
     Gradient error          =      7.9E-08 Ry/Bohr

     bfgs converged in   1 scf cycles and   0 bfgs steps
     (criteria: energy <  1.0E-05 Ry, force <  1.0E-04 Ry/Bohr)

     End of BFGS Geometry Optimization

     Final energy             =     -99.3500397801 Ry
Begin final coordinates

ATOMIC_POSITIONS (crystal)
C             0.2500000000        0.7500000000        0.2500000000
C             0.0000000000        0.0000000000        0.5000000000
C             0.2500000000        0.2500000000        0.7500000000
C             0.0000000000        0.5000000000        0.0000000000
C             0.7500000000        0.7500000000        0.7500000000
C             0.5000000000        0.0000000000        0.0000000000
C             0.7500000000        0.2500000000        0.2500000000
C             0.5000000000        0.5000000000        0.5000000000
End final coordinates



     Writing all to output data dir ./C.save/
 
     init_run     :      0.34s CPU      0.38s WALL (       1 calls)
     electrons    :      3.97s CPU      4.17s WALL (       1 calls)
     forces       :      0.09s CPU      0.10s WALL (       1 calls)
     stress       :      0.68s CPU      0.69s WALL (       1 calls)

     Called by init_run:
     wfcinit      :      0.12s CPU      0.13s WALL (       1 calls)
     potinit      :      0.03s CPU      0.04s WALL (       1 calls)
     hinit0       :      0.12s CPU      0.14s WALL (       1 calls)

     Called by electrons:
     c_bands      :      3.04s CPU      3.18s WALL (      14 calls)
     sum_band     :      0.61s CPU      0.64s WALL (      14 calls)
     v_of_rho     :      0.16s CPU      0.17s WALL (      15 calls)
     newd         :      0.13s CPU      0.13s WALL (      15 calls)
     mix_rho      :      0.05s CPU      0.05s WALL (      14 calls)

     Called by c_bands:
     init_us_2    :      0.11s CPU      0.11s WALL (     186 calls)
     init_us_2:cp :      0.11s CPU      0.11s WALL (     186 calls)
     cegterg      :      2.68s CPU      2.81s WALL (      84 calls)

     Called by *egterg:
     cdiaghg      :      0.26s CPU      0.27s WALL (     301 calls)
     h_psi        :      1.87s CPU      2.00s WALL (     307 calls)
     s_psi        :      0.13s CPU      0.14s WALL (     307 calls)
     g_psi        :      0.01s CPU      0.01s WALL (     217 calls)

     Called by h_psi:
     h_psi:calbec :      0.18s CPU      0.19s WALL (     307 calls)
     vloc_psi     :      1.50s CPU      1.62s WALL (     307 calls)
     add_vuspsi   :      0.17s CPU      0.17s WALL (     307 calls)

     General routines
     calbec       :      0.29s CPU      0.31s WALL (     421 calls)
     fft          :      0.06s CPU      0.08s WALL (     190 calls)
     ffts         :      0.00s CPU      0.00s WALL (      14 calls)
     fftw         :      1.44s CPU      1.55s WALL (   10616 calls)
 
     Parallel routines
 
     PWSCF        :      5.22s CPU      5.51s WALL

 
   This run was terminated on:  15:19:12  29Nov2024            

=------------------------------------------------------------------------------=
   JOB DONE.
=------------------------------------------------------------------------------=
