
     Program PWSCF v.7.0 starts on  1Dec2023 at 18:37: 9 

     This program is part of the open-source Quantum ESPRESSO suite
     for quantum simulation of materials; please cite
         "P. Giannozzi et al., J. Phys.:Condens. Matter 21 395502 (2009);
         "P. Giannozzi et al., J. Phys.:Condens. Matter 29 465901 (2017);
         "P. Giannozzi et al., J. Chem. Phys. 152 154105 (2020);
          URL http://www.quantum-espresso.org", 
     in publications or presentations arising from this work. More details at
     http://www.quantum-espresso.org/quote

     Parallel version (MPI), running on    16 processors

     MPI processes distributed on     1 nodes
     R & G space division:  proc/nbgrp/npool/nimage =      16
     325370 MiB available memory on the printing compute node when the environment starts
 
     Waiting for input...
     Reading input from standard input
Warning: card &CELL ignored
Warning: card    CELL_DYNAMICS = 'BFGS' , ignored
Warning: card    CELL_FACTOR = 1.5, ignored
Warning: card    PRESS = 0 , ignored
Warning: card / ignored

     Current dimensions of program PWSCF are:
     Max number of different atomic species (ntypx) = 10
     Max number of k-points (npk) =  40000
     Max angular momentum in pseudopotentials (lmaxx) =  4
     Message from routine iosys:
     pot_extrapolation='first_order' not available, using 'atomic'
     Found identity + (  0.0000 -0.5000  0.5000) symmetry
     This is a supercell, fractional translations are disabled
     Message from routine setup:
     using ibrav=0 with symmetry is DISCOURAGED, use correct ibrav instead

     Subspace diagonalization in iterative solution of the eigenvalue problem:
     a serial algorithm will be used

 
     Parallelization info
     --------------------
     sticks:   dense  smooth     PW     G-vecs:    dense   smooth      PW
     Min          54      54     16                 1208     1208     194
     Max          55      55     17                 1211     1211     196
     Sum         873     873    261                19357    19357    3119
 
     Using Slab Decomposition
 


     bravais-lattice index     =            0
     lattice parameter (alat)  =       6.7471  a.u.
     unit-cell volume          =     307.7163 (a.u.)^3
     number of atoms/cell      =            8
     number of atomic types    =            1
     number of electrons       =        32.00
     number of Kohn-Sham states=           20
     kinetic-energy cutoff     =      60.0000  Ry
     charge density cutoff     =     240.0000  Ry
     scf convergence threshold =      1.0E-12
     mixing beta               =       0.3000
     number of iterations used =            8  plain     mixing
     energy convergence thresh.=      1.0E-05
     force convergence thresh. =      1.0E-04
     Exchange-correlation= PBE
                           (   1   4   3   4   0   0   0)
     nstep                     =          100


     celldm(1)=   6.747054  celldm(2)=   0.000000  celldm(3)=   0.000000
     celldm(4)=   0.000000  celldm(5)=   0.000000  celldm(6)=   0.000000

     crystal axes: (cart. coord. in units of alat)
               a(1) = (   1.000000   0.000000   0.000000 )  
               a(2) = (   0.000000   1.000931   0.000000 )  
               a(3) = (   0.000000   0.000000   1.000931 )  

     reciprocal axes: (cart. coord. in units 2 pi/alat)
               b(1) = (  1.000000  0.000000  0.000000 )  
               b(2) = (  0.000000  0.999070  0.000000 )  
               b(3) = (  0.000000  0.000000  0.999070 )  


     PseudoPot. # 1 for C  read from file:
     ./C.pbe-n-rrkjus_psl.1.0.0.UPF
     MD5 check sum: 1fdd950c42eb37d8afe3dd2f8d12311e
     Pseudo is Ultrasoft + core correction, Zval =  4.0
     Generated using &quot;atomic&quot; code by A. Dal Corso  v.6.3MaX
     Using radial grid of 1073 points,  4 beta functions with: 
                l(1) =   0
                l(2) =   0
                l(3) =   1
                l(4) =   1
     Q(r) pseudized with 0 coefficients 


     atomic species   valence    mass     pseudopotential
        C              4.00    12.00000     C ( 1.00)

      8 Sym. Ops. (no inversion) found



   Cartesian axes

     site n.     atom                  positions (alat units)
         1           C   tau(   1) = (   0.2500000   0.7506980   0.2502327  )
         2           C   tau(   2) = (   0.0000000   0.0000000   0.5004653  )
         3           C   tau(   3) = (   0.2500000   0.2502327   0.7506980  )
         4           C   tau(   4) = (   0.0000000   0.5004653   0.0000000  )
         5           C   tau(   5) = (   0.7500000   0.7506980   0.7506980  )
         6           C   tau(   6) = (   0.5000000   0.0000000   0.0000000  )
         7           C   tau(   7) = (   0.7500000   0.2502327   0.2502327  )
         8           C   tau(   8) = (   0.5000000   0.5004653   0.5004653  )

     number of k points=    40  Gaussian smearing, width (Ry)=  0.0500
                       cart. coord. in units 2pi/alat
        k(    1) = (   0.0625000   0.0624419   0.0624419), wk =   0.0312500
        k(    2) = (   0.0625000   0.0624419   0.1873257), wk =   0.0625000
        k(    3) = (   0.0625000   0.0624419   0.3122094), wk =   0.0625000
        k(    4) = (   0.0625000   0.0624419   0.4370932), wk =   0.0625000
        k(    5) = (   0.0625000   0.1873257   0.1873257), wk =   0.0312500
        k(    6) = (   0.0625000   0.1873257   0.3122094), wk =   0.0625000
        k(    7) = (   0.0625000   0.1873257   0.4370932), wk =   0.0625000
        k(    8) = (   0.0625000   0.3122094   0.3122094), wk =   0.0312500
        k(    9) = (   0.0625000   0.3122094   0.4370932), wk =   0.0625000
        k(   10) = (   0.0625000   0.4370932   0.4370932), wk =   0.0312500
        k(   11) = (   0.1875000   0.0624419   0.0624419), wk =   0.0312500
        k(   12) = (   0.1875000   0.0624419   0.1873257), wk =   0.0625000
        k(   13) = (   0.1875000   0.0624419   0.3122094), wk =   0.0625000
        k(   14) = (   0.1875000   0.0624419   0.4370932), wk =   0.0625000
        k(   15) = (   0.1875000   0.1873257   0.1873257), wk =   0.0312500
        k(   16) = (   0.1875000   0.1873257   0.3122094), wk =   0.0625000
        k(   17) = (   0.1875000   0.1873257   0.4370932), wk =   0.0625000
        k(   18) = (   0.1875000   0.3122094   0.3122094), wk =   0.0312500
        k(   19) = (   0.1875000   0.3122094   0.4370932), wk =   0.0625000
        k(   20) = (   0.1875000   0.4370932   0.4370932), wk =   0.0312500
        k(   21) = (   0.3125000   0.0624419   0.0624419), wk =   0.0312500
        k(   22) = (   0.3125000   0.0624419   0.1873257), wk =   0.0625000
        k(   23) = (   0.3125000   0.0624419   0.3122094), wk =   0.0625000
        k(   24) = (   0.3125000   0.0624419   0.4370932), wk =   0.0625000
        k(   25) = (   0.3125000   0.1873257   0.1873257), wk =   0.0312500
        k(   26) = (   0.3125000   0.1873257   0.3122094), wk =   0.0625000
        k(   27) = (   0.3125000   0.1873257   0.4370932), wk =   0.0625000
        k(   28) = (   0.3125000   0.3122094   0.3122094), wk =   0.0312500
        k(   29) = (   0.3125000   0.3122094   0.4370932), wk =   0.0625000
        k(   30) = (   0.3125000   0.4370932   0.4370932), wk =   0.0312500
        k(   31) = (   0.4375000   0.0624419   0.0624419), wk =   0.0312500
        k(   32) = (   0.4375000   0.0624419   0.1873257), wk =   0.0625000
        k(   33) = (   0.4375000   0.0624419   0.3122094), wk =   0.0625000
        k(   34) = (   0.4375000   0.0624419   0.4370932), wk =   0.0625000
        k(   35) = (   0.4375000   0.1873257   0.1873257), wk =   0.0312500
        k(   36) = (   0.4375000   0.1873257   0.3122094), wk =   0.0625000
        k(   37) = (   0.4375000   0.1873257   0.4370932), wk =   0.0625000
        k(   38) = (   0.4375000   0.3122094   0.3122094), wk =   0.0312500
        k(   39) = (   0.4375000   0.3122094   0.4370932), wk =   0.0625000
        k(   40) = (   0.4375000   0.4370932   0.4370932), wk =   0.0312500

     Dense  grid:    19357 G-vectors     FFT dimensions: (  36,  36,  36)

     Estimated max dynamical RAM per process >       4.36 MB

     Estimated total dynamical RAM >      69.84 MB

     Check: negative core charge=   -0.000040

     Initial potential from superposition of free atoms

     starting charge      31.9997, renormalised to      32.0000
     Starting wfcs are   32 randomized atomic wfcs

     total cpu time spent up to now is        0.3 secs

     Self-consistent Calculation

     iteration #  1     ecut=    60.00 Ry     beta= 0.30
     Davidson diagonalization with overlap
     ethr =  1.00E-02,  avg # of iterations =  2.5

     total cpu time spent up to now is        0.7 secs

     total energy              =     -99.40580966 Ry
     estimated scf accuracy    <       0.45339407 Ry

     iteration #  2     ecut=    60.00 Ry     beta= 0.30
     Davidson diagonalization with overlap
     ethr =  1.42E-03,  avg # of iterations =  1.1

     total cpu time spent up to now is        0.9 secs

     total energy              =     -99.33286687 Ry
     estimated scf accuracy    <       0.18393722 Ry

     iteration #  3     ecut=    60.00 Ry     beta= 0.30
     Davidson diagonalization with overlap
     ethr =  5.75E-04,  avg # of iterations =  2.3

     total cpu time spent up to now is        1.1 secs

     total energy              =     -99.34965039 Ry
     estimated scf accuracy    <       0.00154141 Ry

     iteration #  4     ecut=    60.00 Ry     beta= 0.30
     Davidson diagonalization with overlap
     c_bands:  2 eigenvalues not converged
     c_bands:  1 eigenvalues not converged
     c_bands:  2 eigenvalues not converged
     ethr =  4.82E-06,  avg # of iterations = 12.2

     total cpu time spent up to now is        1.7 secs

     total energy              =     -99.34985440 Ry
     estimated scf accuracy    <       0.00081403 Ry

     iteration #  5     ecut=    60.00 Ry     beta= 0.30
     Davidson diagonalization with overlap
     ethr =  2.54E-06,  avg # of iterations =  2.2

     total cpu time spent up to now is        2.0 secs

     total energy              =     -99.34992709 Ry
     estimated scf accuracy    <       0.00000255 Ry

     iteration #  6     ecut=    60.00 Ry     beta= 0.30
     Davidson diagonalization with overlap
     ethr =  7.95E-09,  avg # of iterations =  4.2

     total cpu time spent up to now is        2.3 secs

     total energy              =     -99.34993464 Ry
     estimated scf accuracy    <       0.00000993 Ry

     iteration #  7     ecut=    60.00 Ry     beta= 0.30
     Davidson diagonalization with overlap
     ethr =  7.95E-09,  avg # of iterations =  2.0

     total cpu time spent up to now is        2.6 secs

     total energy              =     -99.34993598 Ry
     estimated scf accuracy    <       0.00000007 Ry

     iteration #  8     ecut=    60.00 Ry     beta= 0.30
     Davidson diagonalization with overlap
     ethr =  2.25E-10,  avg # of iterations =  2.0

     total cpu time spent up to now is        2.9 secs

     total energy              =     -99.34993599 Ry
     estimated scf accuracy    <          6.8E-09 Ry

     iteration #  9     ecut=    60.00 Ry     beta= 0.30
     Davidson diagonalization with overlap
     ethr =  2.13E-11,  avg # of iterations =  2.3

     total cpu time spent up to now is        3.2 secs

     total energy              =     -99.34993599 Ry
     estimated scf accuracy    <          8.5E-09 Ry

     iteration # 10     ecut=    60.00 Ry     beta= 0.30
     Davidson diagonalization with overlap
     ethr =  2.13E-11,  avg # of iterations =  1.0

     total cpu time spent up to now is        3.4 secs

     total energy              =     -99.34993599 Ry
     estimated scf accuracy    <          7.0E-09 Ry

     iteration # 11     ecut=    60.00 Ry     beta= 0.30
     Davidson diagonalization with overlap
     ethr =  2.13E-11,  avg # of iterations =  2.0

     total cpu time spent up to now is        3.6 secs

     total energy              =     -99.34993599 Ry
     estimated scf accuracy    <          3.6E-11 Ry

     iteration # 12     ecut=    60.00 Ry     beta= 0.30
     Davidson diagonalization with overlap
     ethr =  1.13E-13,  avg # of iterations =  3.5

     total cpu time spent up to now is        3.9 secs

     total energy              =     -99.34993599 Ry
     estimated scf accuracy    <          2.0E-12 Ry

     iteration # 13     ecut=    60.00 Ry     beta= 0.30
     Davidson diagonalization with overlap
     ethr =  1.00E-13,  avg # of iterations =  1.0

     total cpu time spent up to now is        4.2 secs

     total energy              =     -99.34993599 Ry
     estimated scf accuracy    <          4.7E-12 Ry

     iteration # 14     ecut=    60.00 Ry     beta= 0.30
     Davidson diagonalization with overlap
     ethr =  1.00E-13,  avg # of iterations =  1.0

     total cpu time spent up to now is        4.4 secs

     End of self-consistent calculation

          k = 0.0625 0.0624 0.0624 (  2434 PWs)   bands (ev):

    -8.0429  -0.4060  -0.4060  -0.3932   1.5656   1.5656   1.5808   6.6371
     6.6498   6.6498   7.0573   7.0709   7.0709  12.5154  13.0510  13.0607
    17.9662  17.9884  17.9884  18.7498

          k = 0.0625 0.0624 0.1873 (  2426 PWs)   bands (ev):

    -7.7563  -2.2232  -0.2054  -0.1932   1.6850   1.6985   3.6142   5.8217
     5.8324   6.8806   6.8943   6.9642   7.3484  11.4002  12.1410  12.7019
    17.7371  18.7383  18.7593  18.8934

          k = 0.0625 0.0624 0.3122 (  2413 PWs)   bands (ev):

    -7.1855  -3.8369   0.1477   0.1579   1.8318   1.8407   5.0218   5.0283
     5.6150   6.3283   6.3402   7.6241   7.8965  10.0880  10.9169  11.6509
    17.7043  18.5506  20.3631  20.3830

          k = 0.0625 0.0624 0.4371 (  2412 PWs)   bands (ev):

    -6.3354  -5.2147   0.4945   0.4992   1.8614   1.8636   4.5949   4.5962
     5.8396   5.8451   7.3570   8.6989   8.7253   8.7636   9.7256  10.2090
    17.8696  18.1769  22.4254  22.4425

          k = 0.0625 0.1873 0.1873 (  2411 PWs)   bands (ev):

    -7.4707  -1.9814  -1.9814  -0.0528   1.7322   3.5288   3.5288   4.7959
     6.2542   6.2542   7.2246   7.2246   7.5270  10.1658  11.4821  12.7230
    18.5547  18.6772  18.6772  19.6084

          k = 0.0625 0.1873 0.3122 (  2418 PWs)   bands (ev):

    -6.9020  -3.5747  -1.5173   0.0557   1.7410   3.1904   4.2614   5.0979
     5.5594   6.9147   7.0993   7.5783   7.9834   8.8339  10.3423  12.0774
    18.7150  19.4442  19.5310  20.3807

          k = 0.0625 0.1873 0.4371 (  2418 PWs)   bands (ev):

    -6.0557  -4.9413  -0.8872  -0.2469   1.9850   2.5764   4.4009   4.9300
     6.3547   6.9135   7.2460   7.5558   8.1074   9.1784   9.3061  10.8258
    18.9049  19.2052  21.1453  22.3819

          k = 0.0625 0.3122 0.3122 (  2416 PWs)   bands (ev):

    -6.3380  -3.0601  -3.0601  -0.4998   1.8725   4.2252   4.2252   4.2350
     6.3259   6.3259   7.5236   8.1780   8.1780   8.4138   9.2836  11.9900
    19.4474  20.4545  20.4545  20.6592

          k = 0.0625 0.3122 0.4371 (  2417 PWs)   bands (ev):

    -5.5001  -4.4005  -2.3187  -1.4115   2.4358   3.2711   4.7187   5.2052
     5.4714   6.2967   7.1871   8.1841   8.4689   8.6480   9.7593  11.1525
    20.4600  20.6197  20.8051  22.2516

          k = 0.0625 0.4371 0.4371 (  2423 PWs)   bands (ev):

    -4.6778  -3.6062  -3.6062  -2.5878   3.1627   4.1074   4.1074   5.1242
     5.3617   6.2188   6.2188   7.1466   9.5986   9.9237   9.9237  10.8789
    20.6086  21.5857  21.5857  21.6384

          k = 0.1875 0.0624 0.0624 (  2424 PWs)   bands (ev):

    -7.7558  -2.2130  -0.2051  -0.2051   1.6849   1.6849   3.6306   5.8309
     5.8309   6.8923   6.8923   6.9526   7.3353  11.3992  12.1336  12.7104
    17.7146  18.7622  18.7623  18.8805

          k = 0.1875 0.0624 0.1873 (  2413 PWs)   bands (ev):

    -7.4702  -1.9810  -1.9714  -0.0634   1.7213   3.5279   3.5401   4.8003
     6.2459   6.2523   7.2131   7.2238   7.5408  10.1651  11.4739  12.7318
    18.5765  18.6558  18.6799  19.6032

          k = 0.1875 0.0624 0.3122 (  2417 PWs)   bands (ev):

    -6.9015  -3.5742  -1.5080   0.0502   1.7340   3.1920   4.2576   5.0961
     5.5532   6.9111   7.0952   7.5932   7.9861   8.8326  10.3350  12.0851
    18.7173  19.4637  19.5315  20.3605

          k = 0.1875 0.0624 0.4371 (  2419 PWs)   bands (ev):

    -6.0552  -4.9408  -0.8797  -0.2439   1.9775   2.5707   4.3918   4.9211
     6.3526   6.9212   7.2596   7.5540   8.1012   9.1716   9.3117  10.8325
    18.9068  19.2065  21.1628  22.3697

          k = 0.1875 0.1873 0.1873 (  2413 PWs)   bands (ev):

    -7.1856  -1.7553  -1.7553  -1.7461   3.0919   3.0919   3.0953   5.6641
     5.6641   5.6682   7.7883   7.8017   7.8017   8.8082  12.0330  12.0446
    18.6948  18.7160  18.7160  20.4071

          k = 0.1875 0.1873 0.3122 (  2410 PWs)   bands (ev):

    -6.6192  -3.3182  -1.3470  -1.3391   2.2629   2.2661   4.0916   5.6026
     5.6124   7.2556   7.4270   7.8726   7.8855   8.3139  11.0305  11.7408
    18.9797  19.6280  19.6468  20.1340

          k = 0.1875 0.1873 0.4371 (  2421 PWs)   bands (ev):

    -5.7771  -4.6704  -0.9237  -0.9198   1.5372   1.5400   5.0554   5.7657
     5.7712   6.1600   7.7018   7.7079   9.0433   9.0566   9.9861  10.6419
    19.3372  19.7432  21.2758  21.2913

          k = 0.1875 0.3122 0.3122 (  2415 PWs)   bands (ev):

    -6.0580  -2.8220  -2.8220  -1.1604   1.3183   2.8901   2.8901   5.9528
     6.0302   7.2597   7.2597   8.5412   8.5412   8.6332  10.4704  11.6456
    19.6711  19.9796  19.9796  20.9109

          k = 0.1875 0.3122 0.4371 (  2413 PWs)   bands (ev):

    -5.2258  -4.1374  -2.1357  -1.4308   1.1478   1.8238   3.7216   4.7763
     6.4500   6.9566   8.5391   8.7398   8.8671   9.5337   9.7230  10.9675
    20.3965  20.6552  20.7995  21.4900

          k = 0.1875 0.4371 0.4371 (  2400 PWs)   bands (ev):

    -4.4127  -3.3626  -3.3626  -2.4009   1.6219   2.5413   2.5413   3.5470
     7.1302   7.8546   7.8546   8.7127   9.7285   9.9930   9.9930  10.8312
    20.8019  21.5930  21.7133  21.9515

          k = 0.3125 0.0624 0.0624 (  2416 PWs)   bands (ev):

    -7.1839  -3.8293   0.1480   0.1480   1.8308   1.8308   5.0257   5.0257
     5.6298   6.3362   6.3362   7.6158   7.8842  10.0860  10.9086  11.6603
    17.6825  18.5350  20.3900  20.3900

          k = 0.3125 0.0624 0.1873 (  2419 PWs)   bands (ev):

    -6.9004  -3.5672  -1.5163   0.0498   1.7334   3.1870   4.2574   5.1019
     5.5550   6.9146   7.0927   7.5895   7.9802   8.8314  10.3327  12.0887
    18.6941  19.4691  19.5167  20.3871

          k = 0.3125 0.0624 0.3122 (  2415 PWs)   bands (ev):

    -6.3364  -3.0588  -3.0529  -0.4986   1.8637   4.2207   4.2208   4.2248
     6.3160   6.3184   7.5201   8.1828   8.1865   8.4279   9.2744  12.0012
    19.4693  20.4349  20.4600  20.6549

          k = 0.3125 0.0624 0.4371 (  2412 PWs)   bands (ev):

    -5.4986  -4.3990  -2.3121  -1.4064   2.4264   3.2630   4.7064   5.2005
     5.4593   6.2924   7.1785   8.1751   8.4832   8.6637   9.7669  11.1622
    20.4790  20.6239  20.8076  22.2763

          k = 0.3125 0.1873 0.1873 (  2411 PWs)   bands (ev):

    -6.6181  -3.3113  -1.3465  -1.3465   2.2641   2.2641   4.0889   5.6017
     5.6017   7.2672   7.4252   7.8832   7.8832   8.3013  11.0213  11.7515
    18.9596  19.6516  19.6516  20.1211

          k = 0.3125 0.1873 0.3122 (  2416 PWs)   bands (ev):

    -6.0570  -2.8211  -2.8155  -1.1646   1.3193   2.8844   2.8877   5.9387
     6.0281   7.2547   7.2653   8.5368   8.5439   8.6468  10.4606  11.6566
    19.6917  19.9622  19.9835  20.9091

          k = 0.3125 0.1873 0.4371 (  2414 PWs)   bands (ev):

    -5.2248  -4.1364  -2.1302  -1.4285   1.1435   1.8174   3.7191   4.7739
     6.4372   6.9500   8.5293   8.7480   8.8808   9.5240   9.7316  10.9773
    20.3993  20.6728  20.8014  21.4811

          k = 0.3125 0.3122 0.3122 (  2411 PWs)   bands (ev):

    -5.5027  -2.3864  -2.3864  -2.3814   1.5750   1.5791   1.5791   4.5873
     7.8287   7.8287   7.8441   9.0556   9.0686   9.0686  11.0508  11.0652
    20.0804  20.0985  20.0985  21.4328

          k = 0.3125 0.3122 0.4371 (  2408 PWs)   bands (ev):

    -4.6844  -3.6258  -1.9250  -1.9224   0.6550   0.6573   2.3011   3.3248
     8.1253   8.1325   9.3297   9.3361   9.5267   9.6579  10.3530  10.7137
    20.6049  21.0056  21.0201  21.0869

          k = 0.3125 0.4371 0.4371 (  2410 PWs)   bands (ev):

    -3.8967  -2.9150  -2.9150  -2.1813   0.4119   1.1276   1.1276   2.0803
     8.8299   9.2941   9.2941   9.9610   9.9870  10.0993  10.0993  10.7149
    21.1350  21.4254  21.4255  21.6903

          k = 0.4375 0.0624 0.0624 (  2413 PWs)   bands (ev):

    -6.3322  -5.2095   0.4933   0.4933   1.8581   1.8581   4.5940   4.5940
     5.8421   5.8421   7.3640   8.6879   8.7255   8.7632   9.7159  10.2171
    17.8493  18.1588  22.4535  22.4536

          k = 0.4375 0.0624 0.1873 (  2419 PWs)   bands (ev):

    -6.0525  -4.9362  -0.8858  -0.2471   1.9773   2.5701   4.3927   4.9225
     6.3527   6.9170   7.2535   7.5524   8.0977   9.1680   9.3143  10.8376
    18.8855  19.1878  21.1730  22.3938

          k = 0.4375 0.0624 0.3122 (  2415 PWs)   bands (ev):

    -5.4970  -4.3954  -2.3163  -1.4085   2.4270   3.2640   4.7074   5.1992
     5.4614   6.2914   7.1759   8.1734   8.4764   8.6589   9.7730  11.1662
    20.4856  20.6016  20.7904  22.2704

          k = 0.4375 0.0624 0.4371 (  2426 PWs)   bands (ev):

    -4.6748  -3.6033  -3.6014  -2.5836   3.1539   4.0994   4.1004   5.1177
     5.3495   6.2066   6.2079   7.1357   9.6126   9.9343   9.9392  10.8921
    20.6309  21.6048  21.6106  21.6606

          k = 0.4375 0.1873 0.1873 (  2422 PWs)   bands (ev):

    -5.7745  -4.6658  -0.9238  -0.9238   1.5371   1.5371   5.0513   5.7621
     5.7621   6.1566   7.7066   7.7066   9.0441   9.0581   9.9759  10.6547
    19.3188  19.7270  21.3004  21.3004

          k = 0.4375 0.1873 0.3122 (  2414 PWs)   bands (ev):

    -5.2233  -4.1329  -2.1340  -1.4299   1.1438   1.8195   3.7160   4.7721
     6.4364   6.9462   8.5313   8.7467   8.8779   9.5228   9.7334  10.9808
    20.3811  20.6783  20.7872  21.4977

          k = 0.4375 0.1873 0.4371 (  2403 PWs)   bands (ev):

    -4.4103  -3.3604  -3.3585  -2.3975   1.6160   2.5352   2.5366   3.5424
     7.1165   7.8423   7.8428   8.7010   9.7422  10.0039  10.0068  10.8440
    20.8224  21.6040  21.6059  21.7354

          k = 0.4375 0.3122 0.3122 (  2409 PWs)   bands (ev):

    -4.6829  -3.6225  -1.9247  -1.9247   0.6560   0.6560   2.2975   3.3228
     8.1194   8.1194   9.3394   9.3394   9.5415   9.6456  10.3418  10.7263
    20.5902  21.0232  21.0232  21.0765

          k = 0.4375 0.3122 0.4371 (  2409 PWs)   bands (ev):

    -3.8953  -2.9138  -2.9121  -2.1801   0.4098   1.1241   1.1256   2.0781
     8.8157   9.2810   9.2858   9.9741   9.9749  10.1087  10.1113  10.7273
    21.1518  21.4185  21.4256  21.6926

          k = 0.4375 0.4371 0.4371 (  2404 PWs)   bands (ev):

    -3.1771  -2.4347  -2.4347  -2.4338   0.1498   0.1506   0.1506   0.8783
    10.0754  10.0754  10.0888  10.2445  10.2573  10.2573  10.5136  10.5299
    21.4858  21.4953  21.4953  21.6971

     the Fermi energy is    15.3292 ev

!    total energy              =     -99.34993599 Ry
     estimated scf accuracy    <          8.8E-15 Ry
     smearing contrib. (-TS)   =      -0.00000003 Ry
     internal energy E=F+TS    =     -99.34993596 Ry

     The total energy is F=E-TS. E is the sum of the following terms:
     one-electron contribution =      32.46859073 Ry
     hartree contribution      =       7.79118978 Ry
     xc contribution           =     -37.47880435 Ry
     ewald contribution        =    -102.13091212 Ry

     convergence has been achieved in  14 iterations

     Forces acting on atoms (cartesian axes, Ry/au):

     atom    1 type  1   force =     0.00000000   -0.00000001    0.00000001
     atom    2 type  1   force =     0.00000000    0.00000000    0.00000000
     atom    3 type  1   force =     0.00000000    0.00000001   -0.00000001
     atom    4 type  1   force =     0.00000000    0.00000000    0.00000000
     atom    5 type  1   force =    -0.00000000   -0.00000001   -0.00000001
     atom    6 type  1   force =     0.00000000    0.00000000    0.00000000
     atom    7 type  1   force =    -0.00000000    0.00000001    0.00000001
     atom    8 type  1   force =     0.00000000    0.00000000    0.00000000

     Total force =     0.000000     Total SCF correction =     0.000000
     SCF correction compared to forces is large: reduce conv_thr to get better values


     Computing stress (Cartesian axis) and pressure

          total   stress  (Ry/bohr**3)                   (kbar)     P=       -8.00
  -0.00001529   0.00000000   0.00000000           -2.25        0.00        0.00
   0.00000000  -0.00007392   0.00000000            0.00      -10.87        0.00
   0.00000000   0.00000000  -0.00007392            0.00        0.00      -10.87


     BFGS Geometry Optimization
     Energy error            =      0.0E+00 Ry
     Gradient error          =      1.4E-08 Ry/Bohr

     bfgs converged in   1 scf cycles and   0 bfgs steps
     (criteria: energy <  1.0E-05 Ry, force <  1.0E-04 Ry/Bohr)

     End of BFGS Geometry Optimization

     Final energy             =     -99.3499359906 Ry
Begin final coordinates

ATOMIC_POSITIONS (crystal)
C             0.2500000000        0.7500000000        0.2500000000
C             0.0000000000        0.0000000000        0.5000000000
C             0.2500000000        0.2500000000        0.7500000000
C             0.0000000000        0.5000000000        0.0000000000
C             0.7500000000        0.7500000000        0.7500000000
C             0.5000000000        0.0000000000        0.0000000000
C             0.7500000000        0.2500000000        0.2500000000
C             0.5000000000        0.5000000000        0.5000000000
End final coordinates



     Writing all to output data dir ./C.save/
 
     init_run     :      0.22s CPU      0.30s WALL (       1 calls)
     electrons    :      3.90s CPU      4.04s WALL (       1 calls)
     forces       :      0.03s CPU      0.03s WALL (       1 calls)
     stress       :      0.08s CPU      0.08s WALL (       1 calls)

     Called by init_run:
     wfcinit      :      0.16s CPU      0.16s WALL (       1 calls)
     potinit      :      0.01s CPU      0.01s WALL (       1 calls)
     hinit0       :      0.05s CPU      0.12s WALL (       1 calls)

     Called by electrons:
     c_bands      :      3.37s CPU      3.48s WALL (      14 calls)
     sum_band     :      0.49s CPU      0.52s WALL (      14 calls)
     v_of_rho     :      0.02s CPU      0.02s WALL (      15 calls)
     newd         :      0.01s CPU      0.01s WALL (      15 calls)
     mix_rho      :      0.01s CPU      0.01s WALL (      14 calls)

     Called by c_bands:
     init_us_2    :      0.05s CPU      0.05s WALL (    1240 calls)
     init_us_2:cp :      0.05s CPU      0.05s WALL (    1240 calls)
     cegterg      :      3.18s CPU      3.28s WALL (     560 calls)

     Called by *egterg:
     cdiaghg      :      0.80s CPU      0.82s WALL (    2136 calls)
     h_psi        :      2.22s CPU      2.29s WALL (    2176 calls)
     s_psi        :      0.05s CPU      0.05s WALL (    2176 calls)
     g_psi        :      0.01s CPU      0.01s WALL (    1576 calls)

     Called by h_psi:
     h_psi:calbec :      0.14s CPU      0.14s WALL (    2176 calls)
     vloc_psi     :      2.01s CPU      2.08s WALL (    2176 calls)
     add_vuspsi   :      0.06s CPU      0.06s WALL (    2176 calls)

     General routines
     calbec       :      0.18s CPU      0.19s WALL (    2936 calls)
     fft          :      0.03s CPU      0.10s WALL (     190 calls)
     ffts         :      0.00s CPU      0.00s WALL (      14 calls)
     fftw         :      2.16s CPU      2.24s WALL (   71264 calls)
 
     Parallel routines
 
     PWSCF        :      4.35s CPU      4.58s WALL

 
   This run was terminated on:  18:37:13   1Dec2023            

=------------------------------------------------------------------------------=
   JOB DONE.
=------------------------------------------------------------------------------=
