
     Program PWSCF v.7.0 starts on  1Dec2023 at 18:37:14 

     This program is part of the open-source Quantum ESPRESSO suite
     for quantum simulation of materials; please cite
         "P. Giannozzi et al., J. Phys.:Condens. Matter 21 395502 (2009);
         "P. Giannozzi et al., J. Phys.:Condens. Matter 29 465901 (2017);
         "P. Giannozzi et al., J. Chem. Phys. 152 154105 (2020);
          URL http://www.quantum-espresso.org", 
     in publications or presentations arising from this work. More details at
     http://www.quantum-espresso.org/quote

     Parallel version (MPI), running on    16 processors

     MPI processes distributed on     1 nodes
     R & G space division:  proc/nbgrp/npool/nimage =      16
     325339 MiB available memory on the printing compute node when the environment starts
 
     Waiting for input...
     Reading input from standard input
Warning: card &CELL ignored
Warning: card    CELL_DYNAMICS = 'BFGS' , ignored
Warning: card    CELL_FACTOR = 1.5, ignored
Warning: card    PRESS = 0 , ignored
Warning: card / ignored

     Current dimensions of program PWSCF are:
     Max number of different atomic species (ntypx) = 10
     Max number of k-points (npk) =  40000
     Max angular momentum in pseudopotentials (lmaxx) =  4
     Message from routine iosys:
     pot_extrapolation='first_order' not available, using 'atomic'
     Found identity + (  0.0000  0.5000 -0.5000) symmetry
     This is a supercell, fractional translations are disabled
     Message from routine setup:
     using ibrav=0 with symmetry is DISCOURAGED, use correct ibrav instead

     Subspace diagonalization in iterative solution of the eigenvalue problem:
     a serial algorithm will be used

 
     Parallelization info
     --------------------
     sticks:   dense  smooth     PW     G-vecs:    dense   smooth      PW
     Min          54      54     16                 1214     1214     194
     Max          55      55     17                 1219     1219     197
     Sum         877     877    261                19461    19461    3127
 
     Using Slab Decomposition
 


     bravais-lattice index     =            0
     lattice parameter (alat)  =       6.7808  a.u.
     unit-cell volume          =     309.2549 (a.u.)^3
     number of atoms/cell      =            8
     number of atomic types    =            1
     number of electrons       =        32.00
     number of Kohn-Sham states=           20
     kinetic-energy cutoff     =      60.0000  Ry
     charge density cutoff     =     240.0000  Ry
     scf convergence threshold =      1.0E-12
     mixing beta               =       0.3000
     number of iterations used =            8  plain     mixing
     energy convergence thresh.=      1.0E-05
     force convergence thresh. =      1.0E-04
     Exchange-correlation= PBE
                           (   1   4   3   4   0   0   0)
     nstep                     =          100


     celldm(1)=   6.780789  celldm(2)=   0.000000  celldm(3)=   0.000000
     celldm(4)=   0.000000  celldm(5)=   0.000000  celldm(6)=   0.000000

     crystal axes: (cart. coord. in units of alat)
               a(1) = (   1.000000   0.000000   0.000000 )  
               a(2) = (   0.000000   0.995951   0.000000 )  
               a(3) = (   0.000000   0.000000   0.995951 )  

     reciprocal axes: (cart. coord. in units 2 pi/alat)
               b(1) = (  1.000000  0.000000  0.000000 )  
               b(2) = (  0.000000  1.004066  0.000000 )  
               b(3) = (  0.000000  0.000000  1.004066 )  


     PseudoPot. # 1 for C  read from file:
     ./C.pbe-n-rrkjus_psl.1.0.0.UPF
     MD5 check sum: 1fdd950c42eb37d8afe3dd2f8d12311e
     Pseudo is Ultrasoft + core correction, Zval =  4.0
     Generated using &quot;atomic&quot; code by A. Dal Corso  v.6.3MaX
     Using radial grid of 1073 points,  4 beta functions with: 
                l(1) =   0
                l(2) =   0
                l(3) =   1
                l(4) =   1
     Q(r) pseudized with 0 coefficients 


     atomic species   valence    mass     pseudopotential
        C              4.00    12.00000     C ( 1.00)

      8 Sym. Ops. (no inversion) found



   Cartesian axes

     site n.     atom                  positions (alat units)
         1           C   tau(   1) = (   0.2500000   0.7469632   0.2489877  )
         2           C   tau(   2) = (   0.0000000   0.0000000   0.4979755  )
         3           C   tau(   3) = (   0.2500000   0.2489877   0.7469632  )
         4           C   tau(   4) = (   0.0000000   0.4979755   0.0000000  )
         5           C   tau(   5) = (   0.7500000   0.7469632   0.7469632  )
         6           C   tau(   6) = (   0.5000000   0.0000000   0.0000000  )
         7           C   tau(   7) = (   0.7500000   0.2489877   0.2489877  )
         8           C   tau(   8) = (   0.5000000   0.4979755   0.4979755  )

     number of k points=    40  Gaussian smearing, width (Ry)=  0.0500
                       cart. coord. in units 2pi/alat
        k(    1) = (   0.0625000   0.0627541   0.0627541), wk =   0.0312500
        k(    2) = (   0.0625000   0.0627541   0.1882623), wk =   0.0625000
        k(    3) = (   0.0625000   0.0627541   0.3137705), wk =   0.0625000
        k(    4) = (   0.0625000   0.0627541   0.4392787), wk =   0.0625000
        k(    5) = (   0.0625000   0.1882623   0.1882623), wk =   0.0312500
        k(    6) = (   0.0625000   0.1882623   0.3137705), wk =   0.0625000
        k(    7) = (   0.0625000   0.1882623   0.4392787), wk =   0.0625000
        k(    8) = (   0.0625000   0.3137705   0.3137705), wk =   0.0312500
        k(    9) = (   0.0625000   0.3137705   0.4392787), wk =   0.0625000
        k(   10) = (   0.0625000   0.4392787   0.4392787), wk =   0.0312500
        k(   11) = (   0.1875000   0.0627541   0.0627541), wk =   0.0312500
        k(   12) = (   0.1875000   0.0627541   0.1882623), wk =   0.0625000
        k(   13) = (   0.1875000   0.0627541   0.3137705), wk =   0.0625000
        k(   14) = (   0.1875000   0.0627541   0.4392787), wk =   0.0625000
        k(   15) = (   0.1875000   0.1882623   0.1882623), wk =   0.0312500
        k(   16) = (   0.1875000   0.1882623   0.3137705), wk =   0.0625000
        k(   17) = (   0.1875000   0.1882623   0.4392787), wk =   0.0625000
        k(   18) = (   0.1875000   0.3137705   0.3137705), wk =   0.0312500
        k(   19) = (   0.1875000   0.3137705   0.4392787), wk =   0.0625000
        k(   20) = (   0.1875000   0.4392787   0.4392787), wk =   0.0312500
        k(   21) = (   0.3125000   0.0627541   0.0627541), wk =   0.0312500
        k(   22) = (   0.3125000   0.0627541   0.1882623), wk =   0.0625000
        k(   23) = (   0.3125000   0.0627541   0.3137705), wk =   0.0625000
        k(   24) = (   0.3125000   0.0627541   0.4392787), wk =   0.0625000
        k(   25) = (   0.3125000   0.1882623   0.1882623), wk =   0.0312500
        k(   26) = (   0.3125000   0.1882623   0.3137705), wk =   0.0625000
        k(   27) = (   0.3125000   0.1882623   0.4392787), wk =   0.0625000
        k(   28) = (   0.3125000   0.3137705   0.3137705), wk =   0.0312500
        k(   29) = (   0.3125000   0.3137705   0.4392787), wk =   0.0625000
        k(   30) = (   0.3125000   0.4392787   0.4392787), wk =   0.0312500
        k(   31) = (   0.4375000   0.0627541   0.0627541), wk =   0.0312500
        k(   32) = (   0.4375000   0.0627541   0.1882623), wk =   0.0625000
        k(   33) = (   0.4375000   0.0627541   0.3137705), wk =   0.0625000
        k(   34) = (   0.4375000   0.0627541   0.4392787), wk =   0.0625000
        k(   35) = (   0.4375000   0.1882623   0.1882623), wk =   0.0312500
        k(   36) = (   0.4375000   0.1882623   0.3137705), wk =   0.0625000
        k(   37) = (   0.4375000   0.1882623   0.4392787), wk =   0.0625000
        k(   38) = (   0.4375000   0.3137705   0.3137705), wk =   0.0312500
        k(   39) = (   0.4375000   0.3137705   0.4392787), wk =   0.0625000
        k(   40) = (   0.4375000   0.4392787   0.4392787), wk =   0.0312500

     Dense  grid:    19461 G-vectors     FFT dimensions: (  36,  36,  36)

     Estimated max dynamical RAM per process >       4.39 MB

     Estimated total dynamical RAM >      70.19 MB

     Check: negative core charge=   -0.000041

     Initial potential from superposition of free atoms

     starting charge      31.9997, renormalised to      32.0000
     Starting wfcs are   32 randomized atomic wfcs

     total cpu time spent up to now is        0.3 secs

     Self-consistent Calculation

     iteration #  1     ecut=    60.00 Ry     beta= 0.30
     Davidson diagonalization with overlap
     ethr =  1.00E-02,  avg # of iterations =  2.5

     total cpu time spent up to now is        0.7 secs

     total energy              =     -99.40464756 Ry
     estimated scf accuracy    <       0.44812243 Ry

     iteration #  2     ecut=    60.00 Ry     beta= 0.30
     Davidson diagonalization with overlap
     ethr =  1.40E-03,  avg # of iterations =  1.1

     total cpu time spent up to now is        0.9 secs

     total energy              =     -99.33284617 Ry
     estimated scf accuracy    <       0.18188131 Ry

     iteration #  3     ecut=    60.00 Ry     beta= 0.30
     Davidson diagonalization with overlap
     ethr =  5.68E-04,  avg # of iterations =  2.2

     total cpu time spent up to now is        1.1 secs

     total energy              =     -99.34939295 Ry
     estimated scf accuracy    <       0.00154178 Ry

     iteration #  4     ecut=    60.00 Ry     beta= 0.30
     Davidson diagonalization with overlap
     c_bands:  2 eigenvalues not converged
     c_bands:  1 eigenvalues not converged
     c_bands:  1 eigenvalues not converged
     c_bands:  1 eigenvalues not converged
     c_bands:  2 eigenvalues not converged
     c_bands:  1 eigenvalues not converged
     ethr =  4.82E-06,  avg # of iterations = 12.1

     total cpu time spent up to now is        1.7 secs

     total energy              =     -99.34960165 Ry
     estimated scf accuracy    <       0.00079661 Ry

     iteration #  5     ecut=    60.00 Ry     beta= 0.30
     Davidson diagonalization with overlap
     ethr =  2.49E-06,  avg # of iterations =  2.5

     total cpu time spent up to now is        2.0 secs

     total energy              =     -99.34967290 Ry
     estimated scf accuracy    <       0.00000252 Ry

     iteration #  6     ecut=    60.00 Ry     beta= 0.30
     Davidson diagonalization with overlap
     ethr =  7.88E-09,  avg # of iterations =  4.3

     total cpu time spent up to now is        2.4 secs

     total energy              =     -99.34968039 Ry
     estimated scf accuracy    <       0.00000939 Ry

     iteration #  7     ecut=    60.00 Ry     beta= 0.30
     Davidson diagonalization with overlap
     ethr =  7.88E-09,  avg # of iterations =  2.0

     total cpu time spent up to now is        2.7 secs

     total energy              =     -99.34968153 Ry
     estimated scf accuracy    <       0.00000003 Ry

     iteration #  8     ecut=    60.00 Ry     beta= 0.30
     Davidson diagonalization with overlap
     ethr =  1.04E-10,  avg # of iterations =  2.7

     total cpu time spent up to now is        2.9 secs

     total energy              =     -99.34968153 Ry
     estimated scf accuracy    <          4.8E-09 Ry

     iteration #  9     ecut=    60.00 Ry     beta= 0.30
     Davidson diagonalization with overlap
     ethr =  1.50E-11,  avg # of iterations =  2.0

     total cpu time spent up to now is        3.2 secs

     total energy              =     -99.34968153 Ry
     estimated scf accuracy    <          8.9E-09 Ry

     iteration # 10     ecut=    60.00 Ry     beta= 0.30
     Davidson diagonalization with overlap
     ethr =  1.50E-11,  avg # of iterations =  1.0

     total cpu time spent up to now is        3.4 secs

     total energy              =     -99.34968153 Ry
     estimated scf accuracy    <          6.1E-09 Ry

     iteration # 11     ecut=    60.00 Ry     beta= 0.30
     Davidson diagonalization with overlap
     ethr =  1.50E-11,  avg # of iterations =  2.0

     total cpu time spent up to now is        3.7 secs

     total energy              =     -99.34968153 Ry
     estimated scf accuracy    <          4.5E-11 Ry

     iteration # 12     ecut=    60.00 Ry     beta= 0.30
     Davidson diagonalization with overlap
     ethr =  1.40E-13,  avg # of iterations =  3.2

     total cpu time spent up to now is        4.0 secs

     total energy              =     -99.34968153 Ry
     estimated scf accuracy    <          1.5E-11 Ry

     iteration # 13     ecut=    60.00 Ry     beta= 0.30
     Davidson diagonalization with overlap
     ethr =  1.00E-13,  avg # of iterations =  1.7

     total cpu time spent up to now is        4.2 secs

     End of self-consistent calculation

          k = 0.0625 0.0628 0.0628 (  2444 PWs)   bands (ev):

    -8.0661  -0.4899  -0.4341  -0.4341   1.4682   1.5340   1.5340   6.5698
     6.5698   6.6247   6.9870   6.9870   7.0461  12.4277  12.9479  12.9884
    17.8483  17.8483  17.9447  18.6107

          k = 0.0625 0.0628 0.1883 (  2440 PWs)   bands (ev):

    -7.7795  -2.2490  -0.2885  -0.2357   1.5904   1.6487   3.5768   5.7576
     5.8041   6.8078   6.8673   6.8847   7.2642  11.3156  12.0446  12.6293
    17.5958  18.6240  18.7153  18.7661

          k = 0.0625 0.0628 0.3138 (  2429 PWs)   bands (ev):

    -7.2088  -3.8614   0.0668   0.1109   1.7452   1.7836   4.9638   4.9925
     5.5680   6.2570   6.3083   7.5469   7.8116  10.0066  10.8251  11.5820
    17.5636  18.4189  20.2510  20.3376

          k = 0.0625 0.0628 0.4393 (  2426 PWs)   bands (ev):

    -6.3589  -5.2385   0.4209   0.4412   1.7879   1.7977   4.5437   4.5497
     5.7791   5.8026   7.2940   8.6104   8.6574   8.6878   9.6367  10.1431
    17.7309  18.0413  22.3174  22.3921

          k = 0.0625 0.1883 0.1883 (  2423 PWs)   bands (ev):

    -7.4939  -2.0083  -2.0083  -0.1449   1.6332   3.4803   3.4803   4.7647
     6.1804   6.1804   7.1430   7.1431   7.5144  10.0849  11.3727  12.6673
    18.5305  18.5396  18.5396  19.4835

          k = 0.0625 0.1883 0.3138 (  2428 PWs)   bands (ev):

    -6.9253  -3.5997  -1.5470  -0.0229   1.6574   3.1223   4.2031   5.0322
     5.4860   6.8515   7.0183   7.5628   7.9192   8.7532  10.2370  12.0262
    18.5766  19.3986  19.4185  20.2458

          k = 0.0625 0.1883 0.4393 (  2432 PWs)   bands (ev):

    -6.0793  -4.9654  -0.9235  -0.2992   1.9025   2.4955   4.3214   4.8479
     6.2783   6.8764   7.2237   7.4760   8.0121   9.0772   9.2583  10.7783
    18.7672  19.0692  21.1157  22.2674

          k = 0.0625 0.3138 0.3138 (  2426 PWs)   bands (ev):

    -6.3615  -3.0865  -3.0865  -0.5521   1.7884   4.1454   4.1454   4.1507
     6.2350   6.2350   7.4411   8.1372   8.1372   8.3979   9.1791  11.9463
    19.4206  20.3174  20.3174  20.5326

          k = 0.0625 0.3138 0.4393 (  2432 PWs)   bands (ev):

    -5.5241  -4.4252  -2.3480  -1.4476   2.3488   3.1853   4.6239   5.1220
     5.3754   6.2131   7.0879   8.0814   8.4416   8.6282   9.7237  11.1142
    20.4306  20.4818  20.6700  22.2031

          k = 0.0625 0.4393 0.4393 (  2437 PWs)   bands (ev):

    -4.7025  -3.6324  -3.6324  -2.6171   3.0748   4.0208   4.0208   5.0384
     5.2616   6.1177   6.1177   7.0439   9.5766   9.8965   9.8965  10.8476
    20.5771  21.5482  21.5482  21.5970

          k = 0.1875 0.0628 0.0628 (  2439 PWs)   bands (ev):

    -7.7819  -2.2933  -0.2367  -0.2367   1.6493   1.6493   3.5057   5.7643
     5.7643   6.8163   6.8163   6.9352   7.3214  11.3201  12.0767  12.5923
    17.6937  18.6114  18.6114  18.8219

          k = 0.1875 0.0628 0.1883 (  2429 PWs)   bands (ev):

    -7.4963  -2.0514  -2.0100  -0.0990   1.6804   3.4309   3.4842   4.7456
     6.1888   6.2168   7.1463   7.1930   7.4544  10.0878  11.4078  12.6292
    18.4360  18.5280  18.6325  19.5043

          k = 0.1875 0.0628 0.3138 (  2429 PWs)   bands (ev):

    -6.9276  -3.6018  -1.5870   0.0013   1.6884   3.1149   4.2189   5.0402
     5.5135   6.8672   7.0365   7.4982   7.9072   8.7586  10.2681  11.9929
    18.5664  19.3334  19.3964  20.3332

          k = 0.1875 0.0628 0.4393 (  2426 PWs)   bands (ev):

    -6.0815  -4.9676  -0.9559  -0.3118   1.9349   2.5198   4.3609   4.8867
     6.2872   6.8435   7.1651   7.4836   8.0394   9.1064   9.2336  10.7492
    18.7589  19.0634  21.0395  22.3209

          k = 0.1875 0.1883 0.1883 (  2431 PWs)   bands (ev):

    -7.2117  -1.8256  -1.7858  -1.7858   3.0194   3.0352   3.0352   5.6002
     5.6172   5.6172   7.7149   7.7149   7.7730   8.7350  11.9303  11.9808
    18.5752  18.5752  18.6673  20.2889

          k = 0.1875 0.1883 0.3138 (  2428 PWs)   bands (ev):

    -6.6455  -3.3464  -1.4164  -1.3819   2.2024   2.2158   4.0256   5.5186
     5.5606   7.2102   7.3552   7.7958   7.8513   8.2264  10.9355  11.6769
    18.8387  19.5159  19.5976  20.0003

          k = 0.1875 0.1883 0.4393 (  2434 PWs)   bands (ev):

    -5.8037  -4.6975  -0.9885  -0.9715   1.4832   1.4949   4.9862   5.6841
     5.7075   6.0893   7.6340   7.6605   8.9593   9.0009   9.8944  10.5842
    19.1970  19.6051  21.1698  21.2374

          k = 0.1875 0.3138 0.3138 (  2425 PWs)   bands (ev):

    -6.0845  -2.8520  -2.8520  -1.2294   1.2768   2.8213   2.8213   5.8423
     5.9587   7.1928   7.1928   8.4728   8.4728   8.6148  10.3592  11.6026
    19.6385  19.8474  19.8475  20.7931

          k = 0.1875 0.3138 0.4393 (  2422 PWs)   bands (ev):

    -5.2528  -4.1653  -2.1703  -1.4784   1.0904   1.7566   3.6509   4.7050
     6.3395   6.8599   8.4373   8.6998   8.8428   9.4240   9.6834  10.9290
    20.2633  20.6184  20.6685  21.3786

          k = 0.1875 0.4393 0.4393 (  2428 PWs)   bands (ev):

    -4.4406  -3.3925  -3.3925  -2.4354   1.5544   2.4709   2.4709   3.4756
     7.0156   7.7435   7.7435   8.6001   9.7046   9.9630   9.9630  10.7988
    20.7632  21.5225  21.5237  21.6674

          k = 0.3125 0.0628 0.0628 (  2428 PWs)   bands (ev):

    -7.2157  -3.8943   0.1097   0.1097   1.7884   1.7884   4.9751   4.9751
     5.5032   6.2738   6.2738   7.5838   7.8648  10.0144  10.8614  11.5411
    17.6583  18.4864  20.2206  20.2206

          k = 0.3125 0.0628 0.1883 (  2424 PWs)   bands (ev):

    -6.9323  -3.6321  -1.5514   0.0033   1.6909   3.1371   4.2198   5.0139
     5.5056   6.8512   7.0473   7.5142   7.9338   8.7636  10.2782  11.9772
    18.6671  19.3103  19.4606  20.2181

          k = 0.3125 0.0628 0.3138 (  2426 PWs)   bands (ev):

    -6.3683  -3.1177  -3.0922  -0.5569   1.8263   4.1640   4.1653   4.1946
     6.2675   6.2777   7.4563   8.1009   8.1159   8.3368   9.2192  11.8974
    19.3253  20.2938  20.4025  20.5500

          k = 0.3125 0.0628 0.4393 (  2432 PWs)   bands (ev):

    -5.5307  -4.4316  -2.3764  -1.4695   2.3894   3.2205   4.6771   5.1423
     5.4275   6.2317   7.1256   8.1208   8.3795   8.5601   9.6904  11.0717
    20.3479  20.4636  20.6590  22.0952

          k = 0.3125 0.1883 0.1883 (  2428 PWs)   bands (ev):

    -6.6500  -3.3762  -1.3842  -1.3842   2.2112   2.2112   4.0362   5.5645
     5.5645   7.1606   7.3629   7.8052   7.8052   8.2809  10.9763  11.6295
    18.9261  19.4949  19.4949  20.0564

          k = 0.3125 0.1883 0.3138 (  2434 PWs)   bands (ev):

    -6.0891  -2.8801  -2.8556  -1.2109   1.2728   2.8317   2.8461   5.9029
     5.9682   7.1684   7.2154   8.4599   8.4922   8.5554  10.4009  11.5555
    19.5490  19.8304  19.9232  20.7978

          k = 0.3125 0.1883 0.4393 (  2426 PWs)   bands (ev):

    -5.2572  -4.1695  -2.1941  -1.4880   1.1086   1.7842   3.6617   4.7154
     6.3948   6.8881   8.4798   8.6649   8.7835   9.4657   9.6457  10.8865
    20.2511  20.5417  20.6596  21.4170

          k = 0.3125 0.3138 0.3138 (  2425 PWs)   bands (ev):

    -5.5350  -2.4455  -2.4239  -2.4239   1.5253   1.5253   1.5427   4.5288
     7.7200   7.7862   7.7862   8.9766   8.9766   9.0327  10.9476  11.0105
    19.9581  19.9581  20.0368  21.3010

          k = 0.3125 0.3138 0.4393 (  2415 PWs)   bands (ev):

    -4.7173  -3.6601  -1.9824  -1.9714   0.6115   0.6214   2.2448   3.2673
     8.0251   8.0558   9.2614   9.2889   9.4714   9.5700  10.2559  10.6590
    20.4675  20.8897  20.9525  20.9544

          k = 0.3125 0.4393 0.4393 (  2420 PWs)   bands (ev):

    -3.9309  -2.9525  -2.9525  -2.2278   0.3664   1.0740   1.0740   2.0239
     8.7076   9.1822   9.1822   9.8691   9.9338  10.0628  10.0628  10.6814
    21.0817  21.3020  21.3021  21.5893

          k = 0.4375 0.0628 0.0628 (  2425 PWs)   bands (ev):

    -6.3726  -5.2610   0.4469   0.4469   1.8123   1.8123   4.5532   4.5532
     5.7912   5.7912   7.2618   8.6554   8.6608   8.6884   9.6791  10.1091
    17.8188  18.1198  22.2699  22.2701

          k = 0.4375 0.0628 0.1883 (  2426 PWs)   bands (ev):

    -6.0929  -4.9877  -0.9294  -0.2980   1.9360   2.5230   4.3571   4.8807
     6.2861   6.8606   7.1910   7.4901   8.0543   9.1219   9.2237  10.7273
    18.8517  19.1447  20.9954  22.2170

          k = 0.4375 0.0628 0.3138 (  2427 PWs)   bands (ev):

    -5.5375  -4.4470  -2.3583  -1.4605   2.3871   3.2162   4.6730   5.1478
     5.4188   6.2361   7.1367   8.1278   8.4087   8.5807   9.6645  11.0544
    20.3195  20.5604  20.7335  22.1212

          k = 0.4375 0.0628 0.4393 (  2432 PWs)   bands (ev):

    -4.7155  -3.6530  -3.6445  -2.6354   3.1129   4.0514   4.0552   5.0665
     5.3147   6.1647   6.1704   7.0914   9.5157   9.8294   9.8503  10.7903
    20.4800  21.4398  21.4650  21.4998

          k = 0.4375 0.1883 0.1883 (  2434 PWs)   bands (ev):

    -5.8150  -4.7174  -0.9710  -0.9710   1.4954   1.4954   5.0034   5.7239
     5.7239   6.1037   7.6385   7.6385   8.9345   9.0164   9.9396  10.5280
    19.2773  19.6756  21.1305  21.1306

          k = 0.4375 0.1883 0.3138 (  2423 PWs)   bands (ev):

    -5.2639  -4.1846  -2.1776  -1.4819   1.1075   1.7753   3.6749   4.7231
     6.3984   6.9054   8.4696   8.6693   8.7956   9.4706   9.6392  10.8717
    20.3305  20.5181  20.7213  21.3460

          k = 0.4375 0.1883 0.4393 (  2414 PWs)   bands (ev):

    -4.4512  -3.4104  -3.4022  -2.4499   1.5799   2.4911   2.4974   3.4955
     7.0751   7.7942   7.7968   8.6509   9.6453   9.9033   9.9152  10.7431
    20.6738  21.4686  21.4757  21.5755

          k = 0.4375 0.3138 0.3138 (  2416 PWs)   bands (ev):

    -4.7238  -3.6745  -1.9727  -1.9727   0.6170   0.6170   2.2604   3.2762
     8.0828   8.0828   9.2457   9.2457   9.4135   9.6167  10.3067  10.6020
    20.5318  20.8761  20.8761  20.9991

          k = 0.4375 0.3138 0.4393 (  2418 PWs)   bands (ev):

    -3.9371  -2.9648  -2.9575  -2.2329   0.3756   1.0827   1.0892   2.0332
     8.7683   9.2169   9.2392   9.8774   9.9204  10.0107  10.0237  10.6285
    21.0082  21.3017  21.3311  21.5601

          k = 0.4375 0.4393 0.4393 (  2418 PWs)   bands (ev):

    -3.2208  -2.4868  -2.4830  -2.4830   0.1126   0.1126   0.1161   0.8358
     9.9658  10.0173  10.0173  10.1653  10.1653  10.2138  10.4095  10.4805
    21.3624  21.3626  21.4047  21.5543

     the Fermi energy is    15.2308 ev

!    total energy              =     -99.34968153 Ry
     estimated scf accuracy    <          1.6E-13 Ry
     smearing contrib. (-TS)   =      -0.00000003 Ry
     internal energy E=F+TS    =     -99.34968150 Ry

     The total energy is F=E-TS. E is the sum of the following terms:
     one-electron contribution =      32.24528613 Ry
     hartree contribution      =       7.81156946 Ry
     xc contribution           =     -37.44503492 Ry
     ewald contribution        =    -101.96150217 Ry

     convergence has been achieved in  13 iterations

     Forces acting on atoms (cartesian axes, Ry/au):

     atom    1 type  1   force =    -0.00000008    0.00000004   -0.00000004
     atom    2 type  1   force =     0.00000000    0.00000000    0.00000000
     atom    3 type  1   force =    -0.00000008   -0.00000004    0.00000004
     atom    4 type  1   force =     0.00000000    0.00000000    0.00000000
     atom    5 type  1   force =     0.00000008    0.00000004    0.00000004
     atom    6 type  1   force =     0.00000000    0.00000000    0.00000000
     atom    7 type  1   force =     0.00000008   -0.00000004   -0.00000004
     atom    8 type  1   force =     0.00000000    0.00000000    0.00000000

     Total force =     0.000000     Total SCF correction =     0.000000
     SCF correction compared to forces is large: reduce conv_thr to get better values


     Computing stress (Cartesian axis) and pressure

          total   stress  (Ry/bohr**3)                   (kbar)     P=      -29.25
  -0.00036925   0.00000000   0.00000000          -54.32        0.00        0.00
   0.00000000  -0.00011360   0.00000000            0.00      -16.71        0.00
   0.00000000   0.00000000  -0.00011360            0.00        0.00      -16.71


     BFGS Geometry Optimization
     Energy error            =      0.0E+00 Ry
     Gradient error          =      7.7E-08 Ry/Bohr

     bfgs converged in   1 scf cycles and   0 bfgs steps
     (criteria: energy <  1.0E-05 Ry, force <  1.0E-04 Ry/Bohr)

     End of BFGS Geometry Optimization

     Final energy             =     -99.3496815327 Ry
Begin final coordinates

ATOMIC_POSITIONS (crystal)
C             0.2500000000        0.7500000000        0.2500000000
C             0.0000000000        0.0000000000        0.5000000000
C             0.2500000000        0.2500000000        0.7500000000
C             0.0000000000        0.5000000000        0.0000000000
C             0.7500000000        0.7500000000        0.7500000000
C             0.5000000000        0.0000000000        0.0000000000
C             0.7500000000        0.2500000000        0.2500000000
C             0.5000000000        0.5000000000        0.5000000000
End final coordinates



     Writing all to output data dir ./C.save/
 
     init_run     :      0.27s CPU      0.30s WALL (       1 calls)
     electrons    :      3.76s CPU      3.87s WALL (       1 calls)
     forces       :      0.03s CPU      0.03s WALL (       1 calls)
     stress       :      0.08s CPU      0.08s WALL (       1 calls)

     Called by init_run:
     wfcinit      :      0.17s CPU      0.18s WALL (       1 calls)
     potinit      :      0.01s CPU      0.01s WALL (       1 calls)
     hinit0       :      0.08s CPU      0.11s WALL (       1 calls)

     Called by electrons:
     c_bands      :      3.25s CPU      3.34s WALL (      13 calls)
     sum_band     :      0.47s CPU      0.49s WALL (      13 calls)
     v_of_rho     :      0.02s CPU      0.02s WALL (      14 calls)
     newd         :      0.01s CPU      0.01s WALL (      14 calls)
     mix_rho      :      0.01s CPU      0.01s WALL (      13 calls)

     Called by c_bands:
     init_us_2    :      0.05s CPU      0.05s WALL (    1160 calls)
     init_us_2:cp :      0.04s CPU      0.05s WALL (    1160 calls)
     cegterg      :      3.07s CPU      3.16s WALL (     520 calls)

     Called by *egterg:
     cdiaghg      :      0.79s CPU      0.81s WALL (    2089 calls)
     h_psi        :      2.13s CPU      2.20s WALL (    2129 calls)
     s_psi        :      0.05s CPU      0.05s WALL (    2129 calls)
     g_psi        :      0.01s CPU      0.01s WALL (    1569 calls)

     Called by h_psi:
     h_psi:calbec :      0.13s CPU      0.14s WALL (    2129 calls)
     vloc_psi     :      1.93s CPU      1.99s WALL (    2129 calls)
     add_vuspsi   :      0.05s CPU      0.05s WALL (    2129 calls)

     General routines
     calbec       :      0.18s CPU      0.18s WALL (    2849 calls)
     fft          :      0.07s CPU      0.10s WALL (     179 calls)
     ffts         :      0.00s CPU      0.00s WALL (      13 calls)
     fftw         :      2.08s CPU      2.15s WALL (   66648 calls)
 
     Parallel routines
 
     PWSCF        :      4.24s CPU      4.43s WALL

 
   This run was terminated on:  18:37:18   1Dec2023            

=------------------------------------------------------------------------------=
   JOB DONE.
=------------------------------------------------------------------------------=
