
     Program PWSCF v.7.0 starts on  1Dec2023 at 18:37:18 

     This program is part of the open-source Quantum ESPRESSO suite
     for quantum simulation of materials; please cite
         "P. Giannozzi et al., J. Phys.:Condens. Matter 21 395502 (2009);
         "P. Giannozzi et al., J. Phys.:Condens. Matter 29 465901 (2017);
         "P. Giannozzi et al., J. Chem. Phys. 152 154105 (2020);
          URL http://www.quantum-espresso.org", 
     in publications or presentations arising from this work. More details at
     http://www.quantum-espresso.org/quote

     Parallel version (MPI), running on    16 processors

     MPI processes distributed on     1 nodes
     R & G space division:  proc/nbgrp/npool/nimage =      16
     325338 MiB available memory on the printing compute node when the environment starts
 
     Waiting for input...
     Reading input from standard input
Warning: card &CELL ignored
Warning: card    CELL_DYNAMICS = 'BFGS' , ignored
Warning: card    CELL_FACTOR = 1.5, ignored
Warning: card    PRESS = 0 , ignored
Warning: card / ignored

     Current dimensions of program PWSCF are:
     Max number of different atomic species (ntypx) = 10
     Max number of k-points (npk) =  40000
     Max angular momentum in pseudopotentials (lmaxx) =  4
     Message from routine iosys:
     pot_extrapolation='first_order' not available, using 'atomic'
     Found identity + (  0.0000 -0.5000  0.5000) symmetry
     This is a supercell, fractional translations are disabled
     Message from routine setup:
     using ibrav=0 with symmetry is DISCOURAGED, use correct ibrav instead

     Subspace diagonalization in iterative solution of the eigenvalue problem:
     a serial algorithm will be used

 
     Parallelization info
     --------------------
     sticks:   dense  smooth     PW     G-vecs:    dense   smooth      PW
     Min          55      55     16                 1219     1219     196
     Max          56      56     17                 1221     1221     199
     Sum         881     881    261                19517    19517    3143
 
     Using Slab Decomposition
 


     bravais-lattice index     =            0
     lattice parameter (alat)  =       6.8145  a.u.
     unit-cell volume          =     310.7935 (a.u.)^3
     number of atoms/cell      =            8
     number of atomic types    =            1
     number of electrons       =        32.00
     number of Kohn-Sham states=           20
     kinetic-energy cutoff     =      60.0000  Ry
     charge density cutoff     =     240.0000  Ry
     scf convergence threshold =      1.0E-12
     mixing beta               =       0.3000
     number of iterations used =            8  plain     mixing
     energy convergence thresh.=      1.0E-05
     force convergence thresh. =      1.0E-04
     Exchange-correlation= PBE
                           (   1   4   3   4   0   0   0)
     nstep                     =          100


     celldm(1)=   6.814524  celldm(2)=   0.000000  celldm(3)=   0.000000
     celldm(4)=   0.000000  celldm(5)=   0.000000  celldm(6)=   0.000000

     crystal axes: (cart. coord. in units of alat)
               a(1) = (   1.000000   0.000000   0.000000 )  
               a(2) = (   0.000000   0.991020   0.000000 )  
               a(3) = (   0.000000   0.000000   0.991020 )  

     reciprocal axes: (cart. coord. in units 2 pi/alat)
               b(1) = (  1.000000  0.000000  0.000000 )  
               b(2) = (  0.000000  1.009061  0.000000 )  
               b(3) = (  0.000000  0.000000  1.009061 )  


     PseudoPot. # 1 for C  read from file:
     ./C.pbe-n-rrkjus_psl.1.0.0.UPF
     MD5 check sum: 1fdd950c42eb37d8afe3dd2f8d12311e
     Pseudo is Ultrasoft + core correction, Zval =  4.0
     Generated using &quot;atomic&quot; code by A. Dal Corso  v.6.3MaX
     Using radial grid of 1073 points,  4 beta functions with: 
                l(1) =   0
                l(2) =   0
                l(3) =   1
                l(4) =   1
     Q(r) pseudized with 0 coefficients 


     atomic species   valence    mass     pseudopotential
        C              4.00    12.00000     C ( 1.00)

      8 Sym. Ops. (no inversion) found



   Cartesian axes

     site n.     atom                  positions (alat units)
         1           C   tau(   1) = (   0.2500000   0.7432653   0.2477551  )
         2           C   tau(   2) = (   0.0000000   0.0000000   0.4955102  )
         3           C   tau(   3) = (   0.2500000   0.2477551   0.7432653  )
         4           C   tau(   4) = (   0.0000000   0.4955102   0.0000000  )
         5           C   tau(   5) = (   0.7500000   0.7432653   0.7432653  )
         6           C   tau(   6) = (   0.5000000   0.0000000   0.0000000  )
         7           C   tau(   7) = (   0.7500000   0.2477551   0.2477551  )
         8           C   tau(   8) = (   0.5000000   0.4955102   0.4955102  )

     number of k points=    40  Gaussian smearing, width (Ry)=  0.0500
                       cart. coord. in units 2pi/alat
        k(    1) = (   0.0625000   0.0630663   0.0630663), wk =   0.0312500
        k(    2) = (   0.0625000   0.0630663   0.1891989), wk =   0.0625000
        k(    3) = (   0.0625000   0.0630663   0.3153315), wk =   0.0625000
        k(    4) = (   0.0625000   0.0630663   0.4414641), wk =   0.0625000
        k(    5) = (   0.0625000   0.1891989   0.1891989), wk =   0.0312500
        k(    6) = (   0.0625000   0.1891989   0.3153315), wk =   0.0625000
        k(    7) = (   0.0625000   0.1891989   0.4414641), wk =   0.0625000
        k(    8) = (   0.0625000   0.3153315   0.3153315), wk =   0.0312500
        k(    9) = (   0.0625000   0.3153315   0.4414641), wk =   0.0625000
        k(   10) = (   0.0625000   0.4414641   0.4414641), wk =   0.0312500
        k(   11) = (   0.1875000   0.0630663   0.0630663), wk =   0.0312500
        k(   12) = (   0.1875000   0.0630663   0.1891989), wk =   0.0625000
        k(   13) = (   0.1875000   0.0630663   0.3153315), wk =   0.0625000
        k(   14) = (   0.1875000   0.0630663   0.4414641), wk =   0.0625000
        k(   15) = (   0.1875000   0.1891989   0.1891989), wk =   0.0312500
        k(   16) = (   0.1875000   0.1891989   0.3153315), wk =   0.0625000
        k(   17) = (   0.1875000   0.1891989   0.4414641), wk =   0.0625000
        k(   18) = (   0.1875000   0.3153315   0.3153315), wk =   0.0312500
        k(   19) = (   0.1875000   0.3153315   0.4414641), wk =   0.0625000
        k(   20) = (   0.1875000   0.4414641   0.4414641), wk =   0.0312500
        k(   21) = (   0.3125000   0.0630663   0.0630663), wk =   0.0312500
        k(   22) = (   0.3125000   0.0630663   0.1891989), wk =   0.0625000
        k(   23) = (   0.3125000   0.0630663   0.3153315), wk =   0.0625000
        k(   24) = (   0.3125000   0.0630663   0.4414641), wk =   0.0625000
        k(   25) = (   0.3125000   0.1891989   0.1891989), wk =   0.0312500
        k(   26) = (   0.3125000   0.1891989   0.3153315), wk =   0.0625000
        k(   27) = (   0.3125000   0.1891989   0.4414641), wk =   0.0625000
        k(   28) = (   0.3125000   0.3153315   0.3153315), wk =   0.0312500
        k(   29) = (   0.3125000   0.3153315   0.4414641), wk =   0.0625000
        k(   30) = (   0.3125000   0.4414641   0.4414641), wk =   0.0312500
        k(   31) = (   0.4375000   0.0630663   0.0630663), wk =   0.0312500
        k(   32) = (   0.4375000   0.0630663   0.1891989), wk =   0.0625000
        k(   33) = (   0.4375000   0.0630663   0.3153315), wk =   0.0625000
        k(   34) = (   0.4375000   0.0630663   0.4414641), wk =   0.0625000
        k(   35) = (   0.4375000   0.1891989   0.1891989), wk =   0.0312500
        k(   36) = (   0.4375000   0.1891989   0.3153315), wk =   0.0625000
        k(   37) = (   0.4375000   0.1891989   0.4414641), wk =   0.0625000
        k(   38) = (   0.4375000   0.3153315   0.3153315), wk =   0.0312500
        k(   39) = (   0.4375000   0.3153315   0.4414641), wk =   0.0625000
        k(   40) = (   0.4375000   0.4414641   0.4414641), wk =   0.0312500

     Dense  grid:    19517 G-vectors     FFT dimensions: (  36,  36,  36)

     Estimated max dynamical RAM per process >       4.41 MB

     Estimated total dynamical RAM >      70.52 MB

     Check: negative core charge=   -0.000042

     Initial potential from superposition of free atoms

     starting charge      31.9997, renormalised to      32.0000
     Starting wfcs are   32 randomized atomic wfcs

     total cpu time spent up to now is        0.4 secs

     Self-consistent Calculation

     iteration #  1     ecut=    60.00 Ry     beta= 0.30
     Davidson diagonalization with overlap
     ethr =  1.00E-02,  avg # of iterations =  2.4

     total cpu time spent up to now is        0.7 secs

     total energy              =     -99.40295562 Ry
     estimated scf accuracy    <       0.44283377 Ry

     iteration #  2     ecut=    60.00 Ry     beta= 0.30
     Davidson diagonalization with overlap
     ethr =  1.38E-03,  avg # of iterations =  1.1

     total cpu time spent up to now is        0.9 secs

     total energy              =     -99.33227482 Ry
     estimated scf accuracy    <       0.17985206 Ry

     iteration #  3     ecut=    60.00 Ry     beta= 0.30
     Davidson diagonalization with overlap
     ethr =  5.62E-04,  avg # of iterations =  2.4

     total cpu time spent up to now is        1.1 secs

     total energy              =     -99.34859236 Ry
     estimated scf accuracy    <       0.00154597 Ry

     iteration #  4     ecut=    60.00 Ry     beta= 0.30
     Davidson diagonalization with overlap
     c_bands:  2 eigenvalues not converged
     c_bands:  2 eigenvalues not converged
     c_bands:  1 eigenvalues not converged
     c_bands:  1 eigenvalues not converged
     c_bands:  1 eigenvalues not converged
     c_bands:  1 eigenvalues not converged
     ethr =  4.83E-06,  avg # of iterations = 12.6

     total cpu time spent up to now is        1.8 secs

     total energy              =     -99.34880410 Ry
     estimated scf accuracy    <       0.00080855 Ry

     iteration #  5     ecut=    60.00 Ry     beta= 0.30
     Davidson diagonalization with overlap
     ethr =  2.53E-06,  avg # of iterations =  2.7

     total cpu time spent up to now is        2.0 secs

     total energy              =     -99.34887699 Ry
     estimated scf accuracy    <       0.00000230 Ry

     iteration #  6     ecut=    60.00 Ry     beta= 0.30
     Davidson diagonalization with overlap
     ethr =  7.17E-09,  avg # of iterations =  4.4

     total cpu time spent up to now is        2.4 secs

     total energy              =     -99.34888326 Ry
     estimated scf accuracy    <       0.00000835 Ry

     iteration #  7     ecut=    60.00 Ry     beta= 0.30
     Davidson diagonalization with overlap
     ethr =  7.17E-09,  avg # of iterations =  2.0

     total cpu time spent up to now is        2.7 secs

     total energy              =     -99.34888439 Ry
     estimated scf accuracy    <       0.00000007 Ry

     iteration #  8     ecut=    60.00 Ry     beta= 0.30
     Davidson diagonalization with overlap
     ethr =  2.09E-10,  avg # of iterations =  2.0

     total cpu time spent up to now is        3.0 secs

     total energy              =     -99.34888439 Ry
     estimated scf accuracy    <          8.4E-09 Ry

     iteration #  9     ecut=    60.00 Ry     beta= 0.30
     Davidson diagonalization with overlap
     ethr =  2.64E-11,  avg # of iterations =  2.0

     total cpu time spent up to now is        3.2 secs

     total energy              =     -99.34888440 Ry
     estimated scf accuracy    <          8.7E-09 Ry

     iteration # 10     ecut=    60.00 Ry     beta= 0.30
     Davidson diagonalization with overlap
     ethr =  2.64E-11,  avg # of iterations =  1.0

     total cpu time spent up to now is        3.4 secs

     total energy              =     -99.34888439 Ry
     estimated scf accuracy    <          7.7E-09 Ry

     iteration # 11     ecut=    60.00 Ry     beta= 0.30
     Davidson diagonalization with overlap
     ethr =  2.41E-11,  avg # of iterations =  1.2

     total cpu time spent up to now is        3.6 secs

     total energy              =     -99.34888439 Ry
     estimated scf accuracy    <          3.1E-10 Ry

     iteration # 12     ecut=    60.00 Ry     beta= 0.30
     Davidson diagonalization with overlap
     ethr =  9.63E-13,  avg # of iterations =  2.2

     total cpu time spent up to now is        3.9 secs

     total energy              =     -99.34888439 Ry
     estimated scf accuracy    <          1.8E-11 Ry

     iteration # 13     ecut=    60.00 Ry     beta= 0.30
     Davidson diagonalization with overlap
     ethr =  1.00E-13,  avg # of iterations =  2.1

     total cpu time spent up to now is        4.2 secs

     total energy              =     -99.34888439 Ry
     estimated scf accuracy    <          2.8E-12 Ry

     iteration # 14     ecut=    60.00 Ry     beta= 0.30
     Davidson diagonalization with overlap
     ethr =  1.00E-13,  avg # of iterations =  1.0

     total cpu time spent up to now is        4.4 secs

     End of self-consistent calculation

          k = 0.0625 0.0631 0.0631 (  2455 PWs)   bands (ev):

    -8.0889  -0.5851  -0.4618  -0.4618   1.3572   1.5026   1.5026   6.4910
     6.4910   6.6125   6.9045   6.9045   7.0352  12.3366  12.8404  12.9265
    17.7099  17.7099  17.9233  18.4721

          k = 0.0625 0.0631 0.1892 (  2449 PWs)   bands (ev):

    -7.8024  -2.2746  -0.3825  -0.2658   1.4837   1.6125   3.5396   5.6842
     5.7870   6.7228   6.8064   6.8543   7.1814  11.2305  11.9495  12.5592
    17.4563  18.4903  18.6403  18.6923

          k = 0.0625 0.0631 0.3153 (  2437 PWs)   bands (ev):

    -7.2317  -3.8857  -0.0231   0.0742   1.6504   1.7355   4.9007   4.9643
     5.5212   6.1757   6.2890   7.4704   7.7285   9.9255  10.7344  11.5148
    17.4247  18.2889  20.1204  20.3122

          k = 0.0625 0.0631 0.4415 (  2437 PWs)   bands (ev):

    -6.3820  -5.2620   0.3431   0.3879   1.7123   1.7344   4.4920   4.5056
     5.7154   5.7671   7.2314   8.5203   8.5938   8.6126   9.5486  10.0788
    17.5940  17.9075  22.1927  22.3583

          k = 0.0625 0.1892 0.1892 (  2434 PWs)   bands (ev):

    -7.5169  -2.0349  -2.0349  -0.2357   1.5350   3.4319   3.4319   4.7348
     6.1077   6.1077   7.0633   7.0633   7.5021  10.0047  11.2650  12.6124
    18.4037  18.4037  18.5063  19.3602

          k = 0.0625 0.1892 0.3153 (  2441 PWs)   bands (ev):

    -6.9484  -3.6245  -1.5764  -0.1011   1.5742   3.0547   4.1472   4.9669
     5.4131   6.7905   6.9377   7.5477   7.8571   8.6734  10.1332  11.9755
    18.4399  19.2676  19.3929  20.1124

          k = 0.0625 0.1892 0.4415 (  2447 PWs)   bands (ev):

    -6.1026  -4.9892  -0.9597  -0.3518   1.8211   2.4156   4.2437   4.7669
     6.2029   6.8406   7.2020   7.3971   7.9180   8.9773   9.2115  10.7315
    18.6310  18.9347  21.0861  22.1509

          k = 0.0625 0.3153 0.3153 (  2446 PWs)   bands (ev):

    -6.3847  -3.1127  -3.1127  -0.6045   1.7055   4.0666   4.0666   4.0685
     6.1451   6.1451   7.3596   8.0975   8.0975   8.3822   9.0758  11.9031
    19.3939  20.1816  20.1816  20.4074

          k = 0.0625 0.3153 0.4415 (  2447 PWs)   bands (ev):

    -5.5477  -4.4497  -2.3772  -1.4836   2.2632   3.1008   4.5309   5.0399
     5.2808   6.1307   6.9901   7.9802   8.4149   8.6087   9.6887  11.0765
    20.3453  20.4013  20.5361  22.1542

          k = 0.0625 0.4415 0.4415 (  2448 PWs)   bands (ev):

    -4.7269  -3.6583  -3.6583  -2.6461   2.9882   3.9354   3.9354   4.9538
     5.1630   6.0181   6.0181   6.9426   9.5550   9.8697   9.8697  10.8167
    20.5456  21.5104  21.5104  21.5558

          k = 0.1875 0.0631 0.0631 (  2443 PWs)   bands (ev):

    -7.8076  -2.3725  -0.2678  -0.2678   1.6140   1.6140   3.3822   5.6988
     5.6988   6.7413   6.7413   6.9184   7.3078  11.2398  12.0207  12.4771
    17.6730  18.4625  18.4625  18.7640

          k = 0.1875 0.0631 0.1892 (  2440 PWs)   bands (ev):

    -7.5220  -2.1302  -2.0386  -0.1343   1.6399   3.3221   3.4409   4.6921
     6.1264   6.1890   7.0700   7.1737   7.3692  10.0108  11.3419  12.5288
    18.2973  18.3780  18.6092  19.4030

          k = 0.1875 0.0631 0.3153 (  2440 PWs)   bands (ev):

    -6.9535  -3.6289  -1.6648  -0.0474   1.6434   3.0368   4.1810   4.9848
     5.4747   6.8257   6.9787   7.4047   7.8294   8.6851  10.2017  11.9021
    18.4173  19.2046  19.2625  20.3059

          k = 0.1875 0.0631 0.4415 (  2439 PWs)   bands (ev):

    -6.1075  -4.9940  -1.0311  -0.3789   1.8925   2.4683   4.3303   4.8523
     6.2225   6.7687   7.0728   7.4139   7.9784   9.0418   9.1567  10.6671
    18.6127  18.9220  20.9173  22.2702

          k = 0.1875 0.1892 0.1892 (  2443 PWs)   bands (ev):

    -7.2375  -1.9038  -1.8159  -1.8159   2.9422   2.9792   2.9792   5.5355
     5.5710   5.5710   7.6294   7.6294   7.7581   8.6624  11.8173  11.9295
    18.4361  18.4361  18.6400  20.1668

          k = 0.1875 0.1892 0.3153 (  2443 PWs)   bands (ev):

    -6.6714  -3.3743  -1.4926  -1.4166   2.1397   2.1682   3.9606   5.4271
     5.5185   7.1648   7.2842   7.7081   7.8307   8.1406  10.8399  11.6155
    18.6994  19.3863  19.5674  19.8669

          k = 0.1875 0.1892 0.4415 (  2450 PWs)   bands (ev):

    -5.8298  -4.7243  -1.0566  -1.0191   1.4275   1.4531   4.9180   5.5972
     5.6482   6.0196   7.5631   7.6214   8.8633   8.9587   9.8024  10.5286
    19.0582  19.4680  21.0488  21.1988

          k = 0.1875 0.3153 0.3153 (  2442 PWs)   bands (ev):

    -6.1107  -2.8817  -2.8817  -1.2977   1.2356   2.7534   2.7534   5.7337
     5.8881   7.1245   7.1245   8.4075   8.4075   8.5968  10.2492  11.5601
    19.6060  19.7165  19.7165  20.6762

          k = 0.1875 0.3153 0.4415 (  2436 PWs)   bands (ev):

    -5.2794  -4.1929  -2.2047  -1.5258   1.0343   1.6906   3.5814   4.6348
     6.2306   6.7634   8.3362   8.6614   8.8190   9.3155   9.6448  10.8911
    20.1308  20.5377  20.5817  21.2656

          k = 0.1875 0.4415 0.4415 (  2443 PWs)   bands (ev):

    -4.4681  -3.4220  -3.4220  -2.4697   1.4881   2.4016   2.4016   3.4054
     6.9025   7.6338   7.6338   8.4890   9.6810   9.9337   9.9337  10.7668
    20.7246  21.4459  21.4462  21.6200

          k = 0.3125 0.0631 0.0631 (  2448 PWs)   bands (ev):

    -7.2471  -3.9584   0.0719   0.0719   1.7466   1.7466   4.9252   4.9252
     5.3768   6.2122   6.2122   7.5535   7.8459   9.9414  10.8148  11.4249
    17.6342  18.4384  20.0534  20.0534

          k = 0.3125 0.0631 0.1892 (  2442 PWs)   bands (ev):

    -6.9637  -3.6961  -1.5860  -0.0426   1.6491   3.0878   4.1829   4.9242
     5.4570   6.7883   7.0028   7.4398   7.8907   8.6956  10.2240  11.8676
    18.6403  19.1537  19.4045  20.0513

          k = 0.3125 0.0631 0.3153 (  2439 PWs)   bands (ev):

    -6.3998  -3.1814  -3.1253  -0.6145   1.7894   4.1062   4.1107   4.1648
     6.2172   6.2394   7.3929   8.0186   8.0495   8.2467   9.1646  11.7948
    19.1831  20.1296  20.3702  20.4428

          k = 0.3125 0.0631 0.4415 (  2446 PWs)   bands (ev):

    -5.5624  -4.4638  -2.4398  -1.5315   2.3525   3.1778   4.6482   5.0847
     5.3957   6.1716   7.0734   8.0672   8.2781   8.4582   9.6144  10.9820
    20.2181  20.3049  20.5113  21.9150

          k = 0.3125 0.1892 0.1892 (  2439 PWs)   bands (ev):

    -6.6815  -3.4401  -1.4214  -1.4214   2.1591   2.1591   3.9825   5.5279
     5.5279   7.0570   7.3012   7.7281   7.7281   8.2608  10.9319  11.5088
    18.8929  19.3400  19.3400  19.9903

          k = 0.3125 0.1892 0.3153 (  2440 PWs)   bands (ev):

    -6.1207  -2.9438  -2.8896  -1.2566   1.2271   2.7766   2.8076   5.8673
     5.9090   7.0708   7.1767   8.3766   8.4507   8.4653  10.3404  11.4570
    19.4079  19.6789  19.8844  20.6796

          k = 0.3125 0.1892 0.4415 (  2439 PWs)   bands (ev):

    -5.2891  -4.2021  -2.2570  -1.5466   1.0742   1.7511   3.6052   4.6578
     6.3519   6.8245   8.4305   8.5855   8.6884   9.4071   9.5611  10.7974
    20.1038  20.4115  20.5170  21.3507

          k = 0.3125 0.3153 0.3153 (  2443 PWs)   bands (ev):

    -5.5669  -2.5086  -2.4610  -2.4610   1.4724   1.4724   1.5105   4.4712
     7.5975   7.7431   7.7431   8.8867   8.8867   9.0102  10.8310  10.9708
    19.8188  19.8188  19.9933  21.1316

          k = 0.3125 0.3153 0.4415 (  2422 PWs)   bands (ev):

    -4.7498  -3.6939  -2.0416  -2.0174   0.5667   0.5882   2.1893   3.2106
     7.9172   7.9840   9.1907   9.2506   9.3940   9.5059  10.1555  10.6095
    20.3298  20.7593  20.8183  20.8988

          k = 0.3125 0.4415 0.4415 (  2427 PWs)   bands (ev):

    -3.9648  -2.9895  -2.9895  -2.2738   0.3219   1.0213   1.0213   1.9684
     8.5866   9.0706   9.0706   9.7524   9.9071  10.0277  10.0277  10.6484
    21.0275  21.1757  21.1757  21.4881

          k = 0.4375 0.0631 0.0631 (  2436 PWs)   bands (ev):

    -6.4124  -5.3117   0.4012   0.4012   1.7671   1.7671   4.5130   4.5130
     5.7408   5.7408   7.1563   8.5905   8.6106   8.6342   9.6430  10.0059
    17.7885  18.0812  22.0886  22.0886

          k = 0.4375 0.0631 0.1892 (  2441 PWs)   bands (ev):

    -6.1327  -5.0385  -0.9723  -0.3481   1.8953   2.4765   4.3219   4.8395
     6.2181   6.8046   7.1290   7.4272   8.0105   9.0759   9.1374  10.6198
    18.8182  19.1020  20.8199  22.0421

          k = 0.4375 0.0631 0.3153 (  2442 PWs)   bands (ev):

    -5.5774  -4.4978  -2.3997  -1.5117   2.3476   3.1691   4.6391   5.0962
     5.3769   6.1809   7.0977   8.0826   8.3415   8.5033   9.5582  10.9442
    20.1553  20.5191  20.6758  21.9710

          k = 0.4375 0.0631 0.4415 (  2440 PWs)   bands (ev):

    -4.7556  -3.7039  -3.6850  -2.6865   3.0723   4.0030   4.0111   5.0157
     5.2805   6.1220   6.1345   7.0477   9.4198   9.7211   9.7668  10.6895
    20.3305  21.2699  21.3262  21.3396

          k = 0.4375 0.1892 0.1892 (  2444 PWs)   bands (ev):

    -5.8548  -4.7682  -1.0176  -1.0176   1.4543   1.4543   4.9551   5.6862
     5.6862   6.0511   7.5709   7.5709   8.8129   8.9892   9.9039  10.4027
    19.2360  19.6243  20.9625  20.9625

          k = 0.4375 0.1892 0.3153 (  2435 PWs)   bands (ev):

    -5.3039  -4.2356  -2.2205  -1.5332   1.0717   1.7319   3.6341   4.6745
     6.3608   6.8652   8.4050   8.5925   8.7140   9.4174   9.5498  10.7654
    20.2799  20.3594  20.6534  21.1956

          k = 0.4375 0.1892 0.4415 (  2427 PWs)   bands (ev):

    -4.4916  -3.4616  -3.4433  -2.5015   1.5443   2.4462   2.4599   3.4491
     7.0338   7.7450   7.7516   8.6008   9.5497   9.8023   9.8274  10.6438
    20.5260  21.3303  21.3447  21.4092

          k = 0.4375 0.3153 0.3153 (  2420 PWs)   bands (ev):

    -4.7642  -3.7257  -2.0200  -2.0200   0.5787   0.5787   2.2236   3.2302
     8.0467   8.0467   9.1529   9.1529   9.2867   9.5883  10.2721  10.4788
    20.4730  20.7289  20.7289  20.9159

          k = 0.4375 0.3153 0.4415 (  2430 PWs)   bands (ev):

    -3.9782  -3.0167  -3.0005  -2.2849   0.3419   1.0405   1.0546   1.9889
     8.7196   9.1436   9.1969   9.7834   9.8628   9.9120   9.9449  10.5343
    20.8631  21.1741  21.2363  21.3874

          k = 0.4375 0.4415 0.4415 (  2427 PWs)   bands (ev):

    -3.2639  -2.5391  -2.5307  -2.5307   0.0752   0.0752   0.0830   0.7938
     9.8440   9.9379   9.9379  10.0963  10.0963  10.1835  10.2902  10.4479
    21.2193  21.2194  21.3118  21.3666

     the Fermi energy is    15.1275 ev

!    total energy              =     -99.34888439 Ry
     estimated scf accuracy    <          1.5E-13 Ry
     smearing contrib. (-TS)   =      -0.00000004 Ry
     internal energy E=F+TS    =     -99.34888435 Ry

     The total energy is F=E-TS. E is the sum of the following terms:
     one-electron contribution =      32.02514854 Ry
     hartree contribution      =       7.83133537 Ry
     xc contribution           =     -37.41138829 Ry
     ewald contribution        =    -101.79397998 Ry

     convergence has been achieved in  14 iterations

     Forces acting on atoms (cartesian axes, Ry/au):

     atom    1 type  1   force =     0.00000004   -0.00000007    0.00000007
     atom    2 type  1   force =     0.00000000    0.00000000    0.00000000
     atom    3 type  1   force =     0.00000004    0.00000007   -0.00000007
     atom    4 type  1   force =     0.00000000    0.00000000    0.00000000
     atom    5 type  1   force =    -0.00000004   -0.00000007   -0.00000007
     atom    6 type  1   force =     0.00000000    0.00000000    0.00000000
     atom    7 type  1   force =    -0.00000004    0.00000007    0.00000007
     atom    8 type  1   force =     0.00000000    0.00000000    0.00000000

     Total force =     0.000000     Total SCF correction =     0.000001
     SCF correction compared to forces is large: reduce conv_thr to get better values


     Computing stress (Cartesian axis) and pressure

          total   stress  (Ry/bohr**3)                   (kbar)     P=      -49.99
  -0.00071852   0.00000000   0.00000000         -105.70        0.00        0.00
   0.00000000  -0.00015043   0.00000000            0.00      -22.13        0.00
   0.00000000   0.00000000  -0.00015043            0.00        0.00      -22.13


     BFGS Geometry Optimization
     Energy error            =      0.0E+00 Ry
     Gradient error          =      7.1E-08 Ry/Bohr

     bfgs converged in   1 scf cycles and   0 bfgs steps
     (criteria: energy <  1.0E-05 Ry, force <  1.0E-04 Ry/Bohr)

     End of BFGS Geometry Optimization

     Final energy             =     -99.3488843949 Ry
Begin final coordinates

ATOMIC_POSITIONS (crystal)
C             0.2500000000        0.7500000000        0.2500000000
C             0.0000000000        0.0000000000        0.5000000000
C             0.2500000000        0.2500000000        0.7500000000
C             0.0000000000        0.5000000000        0.0000000000
C             0.7500000000        0.7500000000        0.7500000000
C             0.5000000000        0.0000000000        0.0000000000
C             0.7500000000        0.2500000000        0.2500000000
C             0.5000000000        0.5000000000        0.5000000000
End final coordinates



     Writing all to output data dir ./C.save/
 
     init_run     :      0.21s CPU      0.30s WALL (       1 calls)
     electrons    :      3.92s CPU      4.02s WALL (       1 calls)
     forces       :      0.03s CPU      0.03s WALL (       1 calls)
     stress       :      0.08s CPU      0.08s WALL (       1 calls)

     Called by init_run:
     wfcinit      :      0.16s CPU      0.16s WALL (       1 calls)
     potinit      :      0.01s CPU      0.01s WALL (       1 calls)
     hinit0       :      0.03s CPU      0.12s WALL (       1 calls)

     Called by electrons:
     c_bands      :      3.35s CPU      3.45s WALL (      14 calls)
     sum_band     :      0.53s CPU      0.53s WALL (      14 calls)
     v_of_rho     :      0.02s CPU      0.02s WALL (      15 calls)
     newd         :      0.01s CPU      0.01s WALL (      15 calls)
     mix_rho      :      0.01s CPU      0.01s WALL (      14 calls)

     Called by c_bands:
     init_us_2    :      0.05s CPU      0.05s WALL (    1240 calls)
     init_us_2:cp :      0.05s CPU      0.05s WALL (    1240 calls)
     cegterg      :      3.17s CPU      3.26s WALL (     560 calls)

     Called by *egterg:
     cdiaghg      :      0.78s CPU      0.80s WALL (    2123 calls)
     h_psi        :      2.22s CPU      2.29s WALL (    2163 calls)
     s_psi        :      0.05s CPU      0.05s WALL (    2163 calls)
     g_psi        :      0.01s CPU      0.01s WALL (    1563 calls)

     Called by h_psi:
     h_psi:calbec :      0.14s CPU      0.14s WALL (    2163 calls)
     vloc_psi     :      2.02s CPU      2.08s WALL (    2163 calls)
     add_vuspsi   :      0.05s CPU      0.06s WALL (    2163 calls)

     General routines
     calbec       :      0.20s CPU      0.20s WALL (    2923 calls)
     fft          :      0.02s CPU      0.11s WALL (     190 calls)
     ffts         :      0.00s CPU      0.00s WALL (      14 calls)
     fftw         :      2.20s CPU      2.26s WALL (   69912 calls)
 
     Parallel routines
 
     PWSCF        :      4.37s CPU      4.59s WALL

 
   This run was terminated on:  18:37:23   1Dec2023            

=------------------------------------------------------------------------------=
   JOB DONE.
=------------------------------------------------------------------------------=
