
     Program PWSCF v.7.0 starts on  1Dec2023 at 18:36:59 

     This program is part of the open-source Quantum ESPRESSO suite
     for quantum simulation of materials; please cite
         "P. Giannozzi et al., J. Phys.:Condens. Matter 21 395502 (2009);
         "P. Giannozzi et al., J. Phys.:Condens. Matter 29 465901 (2017);
         "P. Giannozzi et al., J. Chem. Phys. 152 154105 (2020);
          URL http://www.quantum-espresso.org", 
     in publications or presentations arising from this work. More details at
     http://www.quantum-espresso.org/quote

     Parallel version (MPI), running on    16 processors

     MPI processes distributed on     1 nodes
     R & G space division:  proc/nbgrp/npool/nimage =      16
     325424 MiB available memory on the printing compute node when the environment starts
 
     Waiting for input...
     Reading input from standard input
Warning: card &CELL ignored
Warning: card    CELL_DYNAMICS = 'BFGS' , ignored
Warning: card    CELL_FACTOR = 1.5, ignored
Warning: card    PRESS = 0 , ignored
Warning: card / ignored

     Current dimensions of program PWSCF are:
     Max number of different atomic species (ntypx) = 10
     Max number of k-points (npk) =  40000
     Max angular momentum in pseudopotentials (lmaxx) =  4
     Message from routine iosys:
     pot_extrapolation='first_order' not available, using 'atomic'

     File ./C.update deleted, as requested

     File ./C.bfgs deleted, as requested
     Found identity + (  0.0000  0.5000 -0.5000) symmetry
     This is a supercell, fractional translations are disabled
     Message from routine setup:
     using ibrav=0 with symmetry is DISCOURAGED, use correct ibrav instead

     Subspace diagonalization in iterative solution of the eigenvalue problem:
     a serial algorithm will be used

 
     Parallelization info
     --------------------
     sticks:   dense  smooth     PW     G-vecs:    dense   smooth      PW
     Min          53      53     15                 1197     1197     193
     Max          54      54     17                 1200     1200     196
     Sum         861     861    255                19189    19189    3101
 
     Using Slab Decomposition
 


     bravais-lattice index     =            0
     lattice parameter (alat)  =       6.6796  a.u.
     unit-cell volume          =     304.6392 (a.u.)^3
     number of atoms/cell      =            8
     number of atomic types    =            1
     number of electrons       =        32.00
     number of Kohn-Sham states=           20
     kinetic-energy cutoff     =      60.0000  Ry
     charge density cutoff     =     240.0000  Ry
     scf convergence threshold =      1.0E-12
     mixing beta               =       0.3000
     number of iterations used =            8  plain     mixing
     energy convergence thresh.=      1.0E-05
     force convergence thresh. =      1.0E-04
     Exchange-correlation= PBE
                           (   1   4   3   4   0   0   0)
     nstep                     =          100


     celldm(1)=   6.679583  celldm(2)=   0.000000  celldm(3)=   0.000000
     celldm(4)=   0.000000  celldm(5)=   0.000000  celldm(6)=   0.000000

     crystal axes: (cart. coord. in units of alat)
               a(1) = (   1.000000   0.000000   0.000000 )  
               a(2) = (   0.000000   1.011041   0.000000 )  
               a(3) = (   0.000000   0.000000   1.011041 )  

     reciprocal axes: (cart. coord. in units 2 pi/alat)
               b(1) = (  1.000000  0.000000  0.000000 )  
               b(2) = (  0.000000  0.989080  0.000000 )  
               b(3) = (  0.000000  0.000000  0.989080 )  


     PseudoPot. # 1 for C  read from file:
     ./C.pbe-n-rrkjus_psl.1.0.0.UPF
     MD5 check sum: 1fdd950c42eb37d8afe3dd2f8d12311e
     Pseudo is Ultrasoft + core correction, Zval =  4.0
     Generated using &quot;atomic&quot; code by A. Dal Corso  v.6.3MaX
     Using radial grid of 1073 points,  4 beta functions with: 
                l(1) =   0
                l(2) =   0
                l(3) =   1
                l(4) =   1
     Q(r) pseudized with 0 coefficients 


     atomic species   valence    mass     pseudopotential
        C              4.00    12.00000     C ( 1.00)

      8 Sym. Ops. (no inversion) found



   Cartesian axes

     site n.     atom                  positions (alat units)
         1           C   tau(   1) = (   0.2500000   0.7582808   0.2527603  )
         2           C   tau(   2) = (   0.0000000   0.0000000   0.5055205  )
         3           C   tau(   3) = (   0.2500000   0.2527603   0.7582808  )
         4           C   tau(   4) = (   0.0000000   0.5055205   0.0000000  )
         5           C   tau(   5) = (   0.7500000   0.7582808   0.7582808  )
         6           C   tau(   6) = (   0.5000000   0.0000000   0.0000000  )
         7           C   tau(   7) = (   0.7500000   0.2527603   0.2527603  )
         8           C   tau(   8) = (   0.5000000   0.5055205   0.5055205  )

     number of k points=    40  Gaussian smearing, width (Ry)=  0.0500
                       cart. coord. in units 2pi/alat
        k(    1) = (   0.0625000   0.0618175   0.0618175), wk =   0.0312500
        k(    2) = (   0.0625000   0.0618175   0.1854524), wk =   0.0625000
        k(    3) = (   0.0625000   0.0618175   0.3090873), wk =   0.0625000
        k(    4) = (   0.0625000   0.0618175   0.4327223), wk =   0.0625000
        k(    5) = (   0.0625000   0.1854524   0.1854524), wk =   0.0312500
        k(    6) = (   0.0625000   0.1854524   0.3090873), wk =   0.0625000
        k(    7) = (   0.0625000   0.1854524   0.4327223), wk =   0.0625000
        k(    8) = (   0.0625000   0.3090873   0.3090873), wk =   0.0312500
        k(    9) = (   0.0625000   0.3090873   0.4327223), wk =   0.0625000
        k(   10) = (   0.0625000   0.4327223   0.4327223), wk =   0.0312500
        k(   11) = (   0.1875000   0.0618175   0.0618175), wk =   0.0312500
        k(   12) = (   0.1875000   0.0618175   0.1854524), wk =   0.0625000
        k(   13) = (   0.1875000   0.0618175   0.3090873), wk =   0.0625000
        k(   14) = (   0.1875000   0.0618175   0.4327223), wk =   0.0625000
        k(   15) = (   0.1875000   0.1854524   0.1854524), wk =   0.0312500
        k(   16) = (   0.1875000   0.1854524   0.3090873), wk =   0.0625000
        k(   17) = (   0.1875000   0.1854524   0.4327223), wk =   0.0625000
        k(   18) = (   0.1875000   0.3090873   0.3090873), wk =   0.0312500
        k(   19) = (   0.1875000   0.3090873   0.4327223), wk =   0.0625000
        k(   20) = (   0.1875000   0.4327223   0.4327223), wk =   0.0312500
        k(   21) = (   0.3125000   0.0618175   0.0618175), wk =   0.0312500
        k(   22) = (   0.3125000   0.0618175   0.1854524), wk =   0.0625000
        k(   23) = (   0.3125000   0.0618175   0.3090873), wk =   0.0625000
        k(   24) = (   0.3125000   0.0618175   0.4327223), wk =   0.0625000
        k(   25) = (   0.3125000   0.1854524   0.1854524), wk =   0.0312500
        k(   26) = (   0.3125000   0.1854524   0.3090873), wk =   0.0625000
        k(   27) = (   0.3125000   0.1854524   0.4327223), wk =   0.0625000
        k(   28) = (   0.3125000   0.3090873   0.3090873), wk =   0.0312500
        k(   29) = (   0.3125000   0.3090873   0.4327223), wk =   0.0625000
        k(   30) = (   0.3125000   0.4327223   0.4327223), wk =   0.0312500
        k(   31) = (   0.4375000   0.0618175   0.0618175), wk =   0.0312500
        k(   32) = (   0.4375000   0.0618175   0.1854524), wk =   0.0625000
        k(   33) = (   0.4375000   0.0618175   0.3090873), wk =   0.0625000
        k(   34) = (   0.4375000   0.0618175   0.4327223), wk =   0.0625000
        k(   35) = (   0.4375000   0.1854524   0.1854524), wk =   0.0312500
        k(   36) = (   0.4375000   0.1854524   0.3090873), wk =   0.0625000
        k(   37) = (   0.4375000   0.1854524   0.4327223), wk =   0.0625000
        k(   38) = (   0.4375000   0.3090873   0.3090873), wk =   0.0312500
        k(   39) = (   0.4375000   0.3090873   0.4327223), wk =   0.0625000
        k(   40) = (   0.4375000   0.4327223   0.4327223), wk =   0.0312500

     Dense  grid:    19189 G-vectors     FFT dimensions: (  36,  36,  36)

     Estimated max dynamical RAM per process >       4.34 MB

     Estimated total dynamical RAM >      69.39 MB

     Check: negative core charge=   -0.000041

     Initial potential from superposition of free atoms

     starting charge      31.9997, renormalised to      32.0000
     Starting wfcs are   32 randomized atomic wfcs

     total cpu time spent up to now is        0.3 secs

     Self-consistent Calculation

     iteration #  1     ecut=    60.00 Ry     beta= 0.30
     Davidson diagonalization with overlap
     ethr =  1.00E-02,  avg # of iterations =  2.4

     total cpu time spent up to now is        0.7 secs

     total energy              =     -99.40649612 Ry
     estimated scf accuracy    <       0.46411592 Ry

     iteration #  2     ecut=    60.00 Ry     beta= 0.30
     Davidson diagonalization with overlap
     ethr =  1.45E-03,  avg # of iterations =  1.1

     total cpu time spent up to now is        0.9 secs

     total energy              =     -99.33131594 Ry
     estimated scf accuracy    <       0.18800769 Ry

     iteration #  3     ecut=    60.00 Ry     beta= 0.30
     Davidson diagonalization with overlap
     ethr =  5.88E-04,  avg # of iterations =  2.4

     total cpu time spent up to now is        1.2 secs

     total energy              =     -99.34853134 Ry
     estimated scf accuracy    <       0.00153382 Ry

     iteration #  4     ecut=    60.00 Ry     beta= 0.30
     Davidson diagonalization with overlap
     c_bands:  1 eigenvalues not converged
     c_bands:  1 eigenvalues not converged
     c_bands:  1 eigenvalues not converged
     c_bands:  1 eigenvalues not converged
     ethr =  4.79E-06,  avg # of iterations = 12.2

     total cpu time spent up to now is        1.8 secs

     total energy              =     -99.34874635 Ry
     estimated scf accuracy    <       0.00080177 Ry

     iteration #  5     ecut=    60.00 Ry     beta= 0.30
     Davidson diagonalization with overlap
     ethr =  2.51E-06,  avg # of iterations =  2.9

     total cpu time spent up to now is        2.0 secs

     total energy              =     -99.34882117 Ry
     estimated scf accuracy    <       0.00000277 Ry

     iteration #  6     ecut=    60.00 Ry     beta= 0.30
     Davidson diagonalization with overlap
     ethr =  8.66E-09,  avg # of iterations =  4.1

     total cpu time spent up to now is        2.4 secs

     total energy              =     -99.34882615 Ry
     estimated scf accuracy    <       0.00000806 Ry

     iteration #  7     ecut=    60.00 Ry     beta= 0.30
     Davidson diagonalization with overlap
     ethr =  8.66E-09,  avg # of iterations =  2.0

     total cpu time spent up to now is        2.7 secs

     total energy              =     -99.34882722 Ry
     estimated scf accuracy    <       0.00000008 Ry

     iteration #  8     ecut=    60.00 Ry     beta= 0.30
     Davidson diagonalization with overlap
     ethr =  2.53E-10,  avg # of iterations =  1.8

     total cpu time spent up to now is        2.9 secs

     total energy              =     -99.34882723 Ry
     estimated scf accuracy    <          9.2E-09 Ry

     iteration #  9     ecut=    60.00 Ry     beta= 0.30
     Davidson diagonalization with overlap
     ethr =  2.89E-11,  avg # of iterations =  2.0

     total cpu time spent up to now is        3.1 secs

     total energy              =     -99.34882723 Ry
     estimated scf accuracy    <          7.8E-09 Ry

     iteration # 10     ecut=    60.00 Ry     beta= 0.30
     Davidson diagonalization with overlap
     ethr =  2.42E-11,  avg # of iterations =  1.0

     total cpu time spent up to now is        3.4 secs

     total energy              =     -99.34882723 Ry
     estimated scf accuracy    <          4.8E-09 Ry

     iteration # 11     ecut=    60.00 Ry     beta= 0.30
     Davidson diagonalization with overlap
     ethr =  1.49E-11,  avg # of iterations =  1.9

     total cpu time spent up to now is        3.6 secs

     total energy              =     -99.34882723 Ry
     estimated scf accuracy    <          8.8E-11 Ry

     iteration # 12     ecut=    60.00 Ry     beta= 0.30
     Davidson diagonalization with overlap
     ethr =  2.73E-13,  avg # of iterations =  3.0

     total cpu time spent up to now is        3.9 secs

     total energy              =     -99.34882723 Ry
     estimated scf accuracy    <          9.6E-12 Ry

     iteration # 13     ecut=    60.00 Ry     beta= 0.30
     Davidson diagonalization with overlap
     ethr =  1.00E-13,  avg # of iterations =  1.0

     total cpu time spent up to now is        4.1 secs

     total energy              =     -99.34882723 Ry
     estimated scf accuracy    <          4.6E-12 Ry

     iteration # 14     ecut=    60.00 Ry     beta= 0.30
     Davidson diagonalization with overlap
     ethr =  1.00E-13,  avg # of iterations =  1.0

     total cpu time spent up to now is        4.3 secs

     End of self-consistent calculation

          k = 0.0625 0.0618 0.0618 (  2411 PWs)   bands (ev):

    -7.9955  -0.3490  -0.3490  -0.1953   1.6298   1.6298   1.8106   6.6630
     6.8139   6.8139   7.0803   7.2429   7.2429  12.6830  13.1790  13.2997
    18.0095  18.2741  18.2741  18.7816

          k = 0.0625 0.0618 0.1855 (  2397 PWs)   bands (ev):

    -7.7089  -2.1706  -0.1439   0.0018   1.7584   1.9186   3.6899   5.8588
     5.9864   6.9081   7.0719   7.1271   7.5214  11.5678  12.3353  12.8548
    18.0254  18.7848  19.0351  19.1526

          k = 0.0625 0.0618 0.3091 (  2391 PWs)   bands (ev):

    -7.1380  -3.7868   0.2217   0.3437   1.9285   2.0335   5.0836   5.1617
     5.7098   6.3704   6.5121   7.7813   8.0719  10.2516  11.1031  11.7937
    17.9912  18.8188  20.4141  20.6513

          k = 0.0625 0.0618 0.4327 (  2391 PWs)   bands (ev):

    -6.2876  -5.1661   0.6007   0.6575   1.9900   2.0159   4.6887   4.7041
     5.9190   5.9842   7.4838   8.8456   8.8993   8.9169   9.9045  10.3468
    18.1523  18.4532  22.4918  22.6942

          k = 0.0625 0.1855 0.1855 (  2390 PWs)   bands (ev):

    -7.4232  -1.9267  -1.9267   0.1350   1.9323   3.6263   3.6263   4.8626
     6.4051   6.4051   7.3932   7.3932   7.5531  10.3293  11.7056  12.8364
    18.6038  18.9575  18.9575  19.8629

          k = 0.0625 0.1855 0.3091 (  2386 PWs)   bands (ev):

    -6.8543  -3.5236  -1.4572   0.2142   1.9097   3.3279   4.3851   5.2307
     5.7078   7.0482   7.2625   7.6103   8.1186   8.9981  10.5571  12.1819
    18.9968  19.4959  19.8000  20.6546

          k = 0.0625 0.1855 0.4327 (  2394 PWs)   bands (ev):

    -6.0076  -4.8922  -0.8143  -0.1426   2.1536   2.7414   4.5659   5.0970
     6.5102   6.9923   7.2927   7.7186   8.3013   9.3849   9.4046  10.9225
    19.1854  19.4817  21.2047  22.6020

          k = 0.0625 0.3091 0.3091 (  2382 PWs)   bands (ev):

    -6.2900  -3.0064  -3.0064  -0.3958   2.0443   4.3879   4.3879   4.4103
     6.5105   6.5105   7.6922   8.2634   8.2634   8.4465   9.4972  12.0790
    19.5015  20.7332  20.7332  20.9171

          k = 0.0625 0.3091 0.4327 (  2380 PWs)   bands (ev):

    -5.4513  -4.3500  -2.2593  -1.3391   2.6139   3.4466   4.9137   5.3753
     5.6676   6.4676   7.3896   8.3938   8.5252   8.6887   9.8323  11.2305
    20.5192  20.8994  21.0791  22.3493

          k = 0.0625 0.4327 0.4327 (  2394 PWs)   bands (ev):

    -4.6275  -3.5529  -3.5529  -2.5287   3.3426   4.2847   4.2847   5.2997
     5.5670   6.4255   6.4255   7.3567   9.6434   9.9794   9.9794  10.9428
    20.6721  21.6602  21.6603  21.7213

          k = 0.1875 0.0618 0.0618 (  2403 PWs)   bands (ev):

    -7.7025  -2.0485  -0.1410  -0.1410   1.7574   1.7574   3.8847   5.9675
     5.9675   6.9891   7.0479   7.0479   7.3639  11.5548  12.2498  12.9541
    17.7566  18.9995  19.0700  19.0700

          k = 0.1875 0.0618 0.1855 (  2390 PWs)   bands (ev):

    -7.4168  -1.9220  -1.8077   0.0087   1.8043   3.6165   3.7589   4.9130
     6.3078   6.3825   7.2557   7.3822   7.7176  10.3200  11.6074  12.9430
    18.7028  18.8632  18.9897  19.7931

          k = 0.1875 0.0618 0.3091 (  2390 PWs)   bands (ev):

    -6.8480  -3.5180  -1.3464   0.1487   1.8270   3.3431   4.3375   5.2095
     5.6348   7.0069   7.2157   7.7880   8.1471   8.9824  10.4709  12.2737
    19.0250  19.7289  19.8058  20.4153

          k = 0.1875 0.0618 0.4327 (  2388 PWs)   bands (ev):

    -6.0013  -4.8862  -0.7238  -0.1059   2.0637   2.6713   4.4544   4.9899
     6.4858   7.0851   7.4548   7.6973   8.2269   9.3042   9.4712  11.0024
    19.2083  19.4978  21.4124  22.4624

          k = 0.1875 0.1855 0.1855 (  2391 PWs)   bands (ev):

    -7.1322  -1.6934  -1.6934  -1.5836   3.2068   3.2068   3.2428   5.7604
     5.7604   5.8145   7.8198   7.9793   7.9793   8.9569  12.1394  12.2769
    18.7504  19.0031  19.0031  20.5808

          k = 0.1875 0.1855 0.3091 (  2390 PWs)   bands (ev):

    -6.5656  -3.2607  -1.2764  -1.1810   2.3554   2.3966   4.2262   5.6865
     5.8065   7.3469   7.5733   7.9175   8.0706   8.4938  11.2176  11.8768
    19.2665  19.6893  19.9129  20.4029

          k = 0.1875 0.1855 0.4327 (  2393 PWs)   bands (ev):

    -5.7230  -4.6152  -0.8277  -0.7802   1.6231   1.6572   5.1968   5.8794
     5.9452   6.3043   7.7916   7.8648   9.1306   9.2543  10.1677  10.7644
    19.6220  20.0229  21.3521  21.5357

          k = 0.1875 0.3091 0.3091 (  2389 PWs)   bands (ev):

    -6.0040  -2.7609  -2.7609  -1.0203   1.4029   3.0313   3.0313   6.1764
     6.1799   7.3895   7.3895   8.6709   8.6876   8.6876  10.6967  11.7335
    19.7371  20.2475  20.2475  21.1498

          k = 0.1875 0.3091 0.4327 (  2382 PWs)   bands (ev):

    -5.1708  -4.0805  -2.0657  -1.3353   1.2662   1.9617   3.8662   4.9221
     6.6751   7.1500   8.7442   8.8259   8.9180   9.7571   9.8062  11.0459
    20.6655  20.7291  21.0621  21.7069

          k = 0.1875 0.4327 0.4327 (  2391 PWs)   bands (ev):

    -4.3560  -3.3020  -3.3020  -2.3311   1.7606   2.6856   2.6856   3.6930
     7.3643   8.0806   8.0806   8.9421   9.7774  10.0546  10.0546  10.8974
    20.8796  21.7197  21.7197  21.8099

          k = 0.3125 0.0618 0.0618 (  2387 PWs)   bands (ev):

    -7.1188  -3.6962   0.2261   0.2261   1.9171   1.9171   5.1293   5.1293
     5.8831   6.4635   6.4635   7.6859   7.9240  10.2257  11.0053  11.9071
    17.7314  18.6342  20.7355  20.7356

          k = 0.3125 0.0618 0.1855 (  2390 PWs)   bands (ev):

    -6.8353  -3.4343  -1.4446   0.1442   1.8203   3.2890   4.3343   5.2721
     5.6559   7.0438   7.1855   7.7427   8.0839   8.9671  10.4431  12.3176
    18.7486  19.6293  19.7930  20.7314

          k = 0.3125 0.0618 0.3091 (  2390 PWs)   bands (ev):

    -6.2711  -2.9904  -2.9204  -0.3794   1.9399   4.2863   4.3318   4.3337
     6.3924   6.4227   7.6491   8.3185   8.3678   8.6134   9.3866  12.2125
    19.7630  20.4998  20.7983  20.8574

          k = 0.3125 0.0618 0.4327 (  2396 PWs)   bands (ev):

    -5.4329  -4.3324  -2.1805  -1.2774   2.5012   3.3475   4.7658   5.3194
     5.5235   6.4160   7.2865   8.2857   8.6975   8.8755   9.9220  11.3457
    20.7454  20.9495  21.1077  22.6408

          k = 0.3125 0.1855 0.1855 (  2393 PWs)   bands (ev):

    -6.5529  -3.1786  -1.2698  -1.2698   2.3725   2.3725   4.1914   5.6774
     5.6774   7.4890   7.5512   8.0418   8.0418   8.3433  11.1136  11.9989
    19.0273  19.9712  19.9712  20.2475

          k = 0.3125 0.1855 0.3091 (  2393 PWs)   bands (ev):

    -5.9915  -2.7508  -2.6831  -1.0708   1.4149   2.9606   3.0024   6.0111
     6.1500   7.3349   7.4551   8.6375   8.7145   8.8334  10.5782  11.8656
    19.9820  20.0409  20.2947  21.1124

          k = 0.3125 0.1855 0.4327 (  2395 PWs)   bands (ev):

    -5.1587  -4.0690  -1.9996  -1.3072   1.2148   1.8845   3.8364   4.8932
     6.5211   7.0690   8.6289   8.9253   9.0817   9.6403   9.9069  11.1639
    20.6986  20.9383  21.0834  21.6040

          k = 0.3125 0.3091 0.3091 (  2389 PWs)   bands (ev):

    -5.4367  -2.3101  -2.3101  -2.2503   1.6404   1.6894   1.6894   4.7068
     7.9126   7.9126   8.0974   9.1026   9.2580   9.2580  11.1332  11.3038
    20.1686  20.3825  20.3825  21.6030

          k = 0.3125 0.3091 0.4327 (  2390 PWs)   bands (ev):

    -4.6171  -3.5559  -1.8308  -1.8000   0.7236   0.7514   2.4165   3.4426
     8.2572   8.3437   9.4206   9.4980   9.6112   9.8644  10.5298  10.8454
    20.8796  21.1104  21.2813  21.3435

          k = 0.3125 0.4327 0.4327 (  2387 PWs)   bands (ev):

    -3.8269  -2.8387  -2.8387  -2.0870   0.5056   1.2376   1.2376   2.1957
     9.0788   9.5171   9.5171  10.0168  10.1787  10.1787  10.2269  10.7836
    21.2401  21.6622  21.6625  21.9020

          k = 0.4375 0.0618 0.0618 (  2393 PWs)   bands (ev):

    -6.2497  -5.1041   0.5882   0.5882   1.9520   1.9520   4.6771   4.6771
     5.9455   5.9455   7.5566   8.7437   8.8828   8.9046   9.7912  10.4459
    17.9113  18.2383  22.8275  22.8278

          k = 0.4375 0.0618 0.1855 (  2395 PWs)   bands (ev):

    -5.9699  -4.8308  -0.7967  -0.1428   2.0616   2.6666   4.4653   5.0079
     6.4814   7.0314   7.3803   7.6756   8.1833   9.2606   9.5078  11.0662
    18.9537  19.2749  21.5347  22.7539

          k = 0.4375 0.0618 0.3091 (  2392 PWs)   bands (ev):

    -5.4142  -4.2900  -2.2304  -1.3021   2.5083   3.3616   4.7776   5.3011
     5.5483   6.4025   7.2547   8.2660   8.6131   8.8171   9.9975  11.3947
    20.6838  20.8238  20.9025  22.5715

          k = 0.4375 0.0618 0.4327 (  2403 PWs)   bands (ev):

    -4.5916  -3.5192  -3.4957  -2.4775   3.2370   4.1885   4.2001   5.2215
     5.4202   6.2802   6.2964   7.2259   9.8091  10.1042  10.1634  11.0985
    20.9377  21.8871  21.9551  21.9835

          k = 0.4375 0.1855 0.1855 (  2400 PWs)   bands (ev):

    -5.6918  -4.5603  -0.8272  -0.8272   1.6225   1.6225   5.1466   5.8403
     5.8403   6.2630   7.8445   7.8445   9.1010   9.3115  10.0503  10.9123
    19.4027  19.8301  21.6457  21.6457

          k = 0.4375 0.1855 0.3091 (  2393 PWs)   bands (ev):

    -5.1402  -4.0272  -2.0451  -1.3234   1.2177   1.9097   3.7988   4.8716
     6.5138   7.0294   8.6470   8.9032   9.0449   9.6251   9.9360  11.2061
    20.4821  20.9148  21.0031  21.8057

          k = 0.4375 0.1855 0.4327 (  2386 PWs)   bands (ev):

    -4.3265  -3.2750  -3.2522  -2.2903   1.6895   2.6119   2.6297   3.6381
     7.1997   7.9343   7.9384   8.8010   9.9396  10.1841  10.2203  11.0502
    21.1223  21.8485  21.8816  22.0240

          k = 0.4375 0.3091 0.3091 (  2387 PWs)   bands (ev):

    -4.5991  -3.5160  -1.8267  -1.8266   0.7358   0.7358   2.3730   3.4178
     8.1940   8.1940   9.5289   9.5289   9.7048   9.8017  10.4140  10.9781
    20.7059  21.2194  21.3179  21.3179

          k = 0.4375 0.3091 0.4327 (  2383 PWs)   bands (ev):

    -3.8099  -2.8247  -2.8044  -2.0721   0.4796   1.1953   1.2133   2.1699
     8.9080   9.3639   9.4111  10.0773  10.1747  10.2962  10.3174  10.9366
    21.4353  21.5761  21.6678  21.8826

          k = 0.4375 0.4327 0.4327 (  2382 PWs)   bands (ev):

    -3.0879  -2.3359  -2.3359  -2.3252   0.2184   0.2283   0.2283   0.9654
    10.1611  10.1611  10.3077  10.3385  10.4765  10.4765  10.5816  10.7742
    21.6283  21.7391  21.7400  21.8779

     the Fermi energy is    15.4920 ev

!    total energy              =     -99.34882723 Ry
     estimated scf accuracy    <          5.4E-13 Ry
     smearing contrib. (-TS)   =      -0.00000004 Ry
     internal energy E=F+TS    =     -99.34882720 Ry

     The total energy is F=E-TS. E is the sum of the following terms:
     one-electron contribution =      32.92487108 Ry
     hartree contribution      =       7.74854736 Ry
     xc contribution           =     -37.54673465 Ry
     ewald contribution        =    -102.47551098 Ry

     convergence has been achieved in  14 iterations

     Forces acting on atoms (cartesian axes, Ry/au):

     atom    1 type  1   force =    -0.00000010    0.00000002   -0.00000002
     atom    2 type  1   force =     0.00000000    0.00000000    0.00000000
     atom    3 type  1   force =    -0.00000010   -0.00000002    0.00000002
     atom    4 type  1   force =     0.00000000    0.00000000    0.00000000
     atom    5 type  1   force =     0.00000010    0.00000002    0.00000002
     atom    6 type  1   force =     0.00000000    0.00000000    0.00000000
     atom    7 type  1   force =     0.00000010   -0.00000002   -0.00000002
     atom    8 type  1   force =     0.00000000    0.00000000    0.00000000

     Total force =     0.000000     Total SCF correction =     0.000001
     SCF correction compared to forces is large: reduce conv_thr to get better values


     Computing stress (Cartesian axis) and pressure

          total   stress  (Ry/bohr**3)                   (kbar)     P=       36.12
   0.00070779   0.00000000   0.00000000          104.12        0.00        0.00
   0.00000000   0.00001440   0.00000000            0.00        2.12        0.00
   0.00000000   0.00000000   0.00001440            0.00        0.00        2.12


     BFGS Geometry Optimization
     Energy error            =      0.0E+00 Ry
     Gradient error          =      1.0E-07 Ry/Bohr

     bfgs converged in   1 scf cycles and   0 bfgs steps
     (criteria: energy <  1.0E-05 Ry, force <  1.0E-04 Ry/Bohr)

     End of BFGS Geometry Optimization

     Final energy             =     -99.3488272343 Ry
Begin final coordinates

ATOMIC_POSITIONS (crystal)
C             0.2500000000        0.7500000000        0.2500000000
C             0.0000000000        0.0000000000        0.5000000000
C             0.2500000000        0.2500000000        0.7500000000
C             0.0000000000        0.5000000000        0.0000000000
C             0.7500000000        0.7500000000        0.7500000000
C             0.5000000000        0.0000000000        0.0000000000
C             0.7500000000        0.2500000000        0.2500000000
C             0.5000000000        0.5000000000        0.5000000000
End final coordinates



     Writing all to output data dir ./C.save/
 
     init_run     :      0.27s CPU      0.30s WALL (       1 calls)
     electrons    :      3.85s CPU      3.98s WALL (       1 calls)
     forces       :      0.03s CPU      0.03s WALL (       1 calls)
     stress       :      0.08s CPU      0.08s WALL (       1 calls)

     Called by init_run:
     wfcinit      :      0.17s CPU      0.17s WALL (       1 calls)
     potinit      :      0.01s CPU      0.01s WALL (       1 calls)
     hinit0       :      0.08s CPU      0.11s WALL (       1 calls)

     Called by electrons:
     c_bands      :      3.31s CPU      3.42s WALL (      14 calls)
     sum_band     :      0.50s CPU      0.52s WALL (      14 calls)
     v_of_rho     :      0.02s CPU      0.02s WALL (      15 calls)
     newd         :      0.01s CPU      0.01s WALL (      15 calls)
     mix_rho      :      0.01s CPU      0.01s WALL (      14 calls)

     Called by c_bands:
     init_us_2    :      0.05s CPU      0.05s WALL (    1240 calls)
     init_us_2:cp :      0.05s CPU      0.05s WALL (    1240 calls)
     cegterg      :      3.13s CPU      3.23s WALL (     560 calls)

     Called by *egterg:
     cdiaghg      :      0.79s CPU      0.81s WALL (    2107 calls)
     h_psi        :      2.19s CPU      2.27s WALL (    2147 calls)
     s_psi        :      0.05s CPU      0.05s WALL (    2147 calls)
     g_psi        :      0.01s CPU      0.01s WALL (    1547 calls)

     Called by h_psi:
     h_psi:calbec :      0.13s CPU      0.14s WALL (    2147 calls)
     vloc_psi     :      1.99s CPU      2.06s WALL (    2147 calls)
     add_vuspsi   :      0.05s CPU      0.05s WALL (    2147 calls)

     General routines
     calbec       :      0.18s CPU      0.19s WALL (    2907 calls)
     fft          :      0.07s CPU      0.10s WALL (     190 calls)
     ffts         :      0.00s CPU      0.00s WALL (      14 calls)
     fftw         :      2.16s CPU      2.24s WALL (   69564 calls)
 
     Parallel routines
 
     PWSCF        :      4.35s CPU      4.54s WALL

 
   This run was terminated on:  18:37: 3   1Dec2023            

=------------------------------------------------------------------------------=
   JOB DONE.
=------------------------------------------------------------------------------=
