
     Program PWSCF v.7.2 starts on 29Nov2024 at 15:19:13 

     This program is part of the open-source Quantum ESPRESSO suite
     for quantum simulation of materials; please cite
         "P. Giannozzi et al., J. Phys.:Condens. Matter 21 395502 (2009);
         "P. Giannozzi et al., J. Phys.:Condens. Matter 29 465901 (2017);
         "P. Giannozzi et al., J. Chem. Phys. 152 154105 (2020);
          URL http://www.quantum-espresso.org", 
     in publications or presentations arising from this work. More details at
     http://www.quantum-espresso.org/quote

     Parallel version (MPI), running on     4 processors

     MPI processes distributed on     1 nodes
     286726 MiB available memory on the printing compute node when the environment starts
 
     Waiting for input...
     Reading input from standard input
Warning: card &CELL ignored
Warning: card    CELL_DYNAMICS = 'BFGS' , ignored
Warning: card    CELL_FACTOR = 1.5, ignored
Warning: card    PRESS = 0 , ignored
Warning: card / ignored

     Current dimensions of program PWSCF are:
     Max number of different atomic species (ntypx) = 10
     Max number of k-points (npk) =  40000
     Max angular momentum in pseudopotentials (lmaxx) =  4
     Message from routine iosys:
     pot_extrapolation='first_order' not available, using 'atomic'
     Found identity + (  0.0000  0.5000 -0.5000) symmetry
     This is a supercell, fractional translations are disabled
     Message from routine setup:
     using ibrav=0 with symmetry is DISCOURAGED, use correct ibrav instead
 
     R & G space division:  proc/nbgrp/npool/nimage =       4
     Subspace diagonalization in iterative solution of the eigenvalue problem:
     a serial algorithm will be used

 
     Parallelization info
     --------------------
     sticks:   dense  smooth     PW     G-vecs:    dense   smooth      PW
     Min         219     219     62                 4865     4865     746
     Max         220     220     63                 4866     4866     747
     Sum         877     877    251                19461    19461    2987
 
     Using Slab Decomposition
 


     bravais-lattice index     =            0
     lattice parameter (alat)  =       6.7808  a.u.
     unit-cell volume          =     309.2549 (a.u.)^3
     number of atoms/cell      =            8
     number of atomic types    =            1
     number of electrons       =        32.00
     number of Kohn-Sham states=           20
     kinetic-energy cutoff     =      60.0000  Ry
     charge density cutoff     =     240.0000  Ry
     scf convergence threshold =      1.0E-12
     mixing beta               =       0.3000
     number of iterations used =            8  plain     mixing
     energy convergence thresh.=      1.0E-05
     force convergence thresh. =      1.0E-04
     Exchange-correlation= PBE
                           (   1   4   3   4   0   0   0)
     nstep                     =          100


     celldm(1)=   6.780789  celldm(2)=   0.000000  celldm(3)=   0.000000
     celldm(4)=   0.000000  celldm(5)=   0.000000  celldm(6)=   0.000000

     crystal axes: (cart. coord. in units of alat)
               a(1) = (   1.000000   0.000000   0.000000 )  
               a(2) = (   0.000000   0.995951   0.000000 )  
               a(3) = (   0.000000   0.000000   0.995951 )  

     reciprocal axes: (cart. coord. in units 2 pi/alat)
               b(1) = (  1.000000  0.000000  0.000000 )  
               b(2) = (  0.000000  1.004066  0.000000 )  
               b(3) = (  0.000000  0.000000  1.004066 )  


     PseudoPot. # 1 for C  read from file:
     ./C.pbe-n-rrkjus_psl.1.0.0.UPF
     MD5 check sum: 1fdd950c42eb37d8afe3dd2f8d12311e
     Pseudo is Ultrasoft + core correction, Zval =  4.0
     Generated using &quot;atomic&quot; code by A. Dal Corso  v.6.3MaX
     Using radial grid of 1073 points,  4 beta functions with: 
                l(1) =   0
                l(2) =   0
                l(3) =   1
                l(4) =   1
     Q(r) pseudized with 0 coefficients 


     atomic species   valence    mass     pseudopotential
        C              4.00    12.00000     C ( 1.00)

      8 Sym. Ops. (no inversion) found



   Cartesian axes

     site n.     atom                  positions (alat units)
         1           C   tau(   1) = (   0.2500000   0.7469632   0.2489877  )
         2           C   tau(   2) = (   0.0000000   0.0000000   0.4979755  )
         3           C   tau(   3) = (   0.2500000   0.2489877   0.7469632  )
         4           C   tau(   4) = (   0.0000000   0.4979755   0.0000000  )
         5           C   tau(   5) = (   0.7500000   0.7469632   0.7469632  )
         6           C   tau(   6) = (   0.5000000   0.0000000   0.0000000  )
         7           C   tau(   7) = (   0.7500000   0.2489877   0.2489877  )
         8           C   tau(   8) = (   0.5000000   0.4979755   0.4979755  )

     number of k points=     6  Gaussian smearing, width (Ry)=  0.0500
                       cart. coord. in units 2pi/alat
        k(    1) = (   0.1250000   0.1255082   0.1255082), wk =   0.2500000
        k(    2) = (   0.1250000   0.1255082   0.3765246), wk =   0.5000000
        k(    3) = (   0.1250000   0.3765246   0.3765246), wk =   0.2500000
        k(    4) = (   0.3750000   0.1255082   0.1255082), wk =   0.2500000
        k(    5) = (   0.3750000   0.1255082   0.3765246), wk =   0.5000000
        k(    6) = (   0.3750000   0.3765246   0.3765246), wk =   0.2500000

     Dense  grid:    19461 G-vectors     FFT dimensions: (  36,  36,  36)

     Estimated max dynamical RAM per process >       9.94 MB

     Estimated total dynamical RAM >      39.74 MB

     Check: negative core charge=   -0.000041

     Initial potential from superposition of free atoms

     starting charge      31.9997, renormalised to      32.0000
     Starting wfcs are   32 randomized atomic wfcs

     total cpu time spent up to now is        0.5 secs

     Self-consistent Calculation

     iteration #  1     ecut=    60.00 Ry     beta= 0.30
     Davidson diagonalization with overlap
     ethr =  1.00E-02,  avg # of iterations =  2.3

     total cpu time spent up to now is        0.9 secs

     total energy              =     -99.40473749 Ry
     estimated scf accuracy    <       0.44801199 Ry

     iteration #  2     ecut=    60.00 Ry     beta= 0.30
     Davidson diagonalization with overlap
     ethr =  1.40E-03,  avg # of iterations =  1.0

     total cpu time spent up to now is        1.2 secs

     total energy              =     -99.33295492 Ry
     estimated scf accuracy    <       0.18184623 Ry

     iteration #  3     ecut=    60.00 Ry     beta= 0.30
     Davidson diagonalization with overlap
     ethr =  5.68E-04,  avg # of iterations =  4.0

     total cpu time spent up to now is        1.4 secs

     total energy              =     -99.34949556 Ry
     estimated scf accuracy    <       0.00154952 Ry

     iteration #  4     ecut=    60.00 Ry     beta= 0.30
     Davidson diagonalization with overlap
     ethr =  4.84E-06,  avg # of iterations = 11.0

     total cpu time spent up to now is        2.0 secs

     total energy              =     -99.34968994 Ry
     estimated scf accuracy    <       0.00086357 Ry

     iteration #  5     ecut=    60.00 Ry     beta= 0.30
     Davidson diagonalization with overlap
     ethr =  2.70E-06,  avg # of iterations =  1.8

     total cpu time spent up to now is        2.3 secs

     total energy              =     -99.34977095 Ry
     estimated scf accuracy    <       0.00000205 Ry

     iteration #  6     ecut=    60.00 Ry     beta= 0.30
     Davidson diagonalization with overlap
     ethr =  6.41E-09,  avg # of iterations =  4.3

     total cpu time spent up to now is        2.7 secs

     total energy              =     -99.34977371 Ry
     estimated scf accuracy    <       0.00000533 Ry

     iteration #  7     ecut=    60.00 Ry     beta= 0.30
     Davidson diagonalization with overlap
     ethr =  6.41E-09,  avg # of iterations =  2.0

     total cpu time spent up to now is        3.0 secs

     total energy              =     -99.34977443 Ry
     estimated scf accuracy    <       0.00000008 Ry

     iteration #  8     ecut=    60.00 Ry     beta= 0.30
     Davidson diagonalization with overlap
     ethr =  2.60E-10,  avg # of iterations =  2.0

     total cpu time spent up to now is        3.3 secs

     total energy              =     -99.34977444 Ry
     estimated scf accuracy    <       0.00000001 Ry

     iteration #  9     ecut=    60.00 Ry     beta= 0.30
     Davidson diagonalization with overlap
     ethr =  3.93E-11,  avg # of iterations =  1.8

     total cpu time spent up to now is        3.5 secs

     total energy              =     -99.34977444 Ry
     estimated scf accuracy    <          8.3E-09 Ry

     iteration # 10     ecut=    60.00 Ry     beta= 0.30
     Davidson diagonalization with overlap
     ethr =  2.61E-11,  avg # of iterations =  1.0

     total cpu time spent up to now is        3.8 secs

     total energy              =     -99.34977444 Ry
     estimated scf accuracy    <          6.4E-09 Ry

     iteration # 11     ecut=    60.00 Ry     beta= 0.30
     Davidson diagonalization with overlap
     ethr =  2.01E-11,  avg # of iterations =  1.0

     total cpu time spent up to now is        4.0 secs

     total energy              =     -99.34977444 Ry
     estimated scf accuracy    <          5.5E-10 Ry

     iteration # 12     ecut=    60.00 Ry     beta= 0.30
     Davidson diagonalization with overlap
     ethr =  1.72E-12,  avg # of iterations =  2.0

     total cpu time spent up to now is        4.3 secs

     total energy              =     -99.34977444 Ry
     estimated scf accuracy    <          8.1E-11 Ry

     iteration # 13     ecut=    60.00 Ry     beta= 0.30
     Davidson diagonalization with overlap
     ethr =  2.54E-13,  avg # of iterations =  1.3

     total cpu time spent up to now is        4.5 secs

     total energy              =     -99.34977444 Ry
     estimated scf accuracy    <          1.4E-11 Ry

     iteration # 14     ecut=    60.00 Ry     beta= 0.30
     Davidson diagonalization with overlap
     ethr =  1.00E-13,  avg # of iterations =  1.0

     total cpu time spent up to now is        4.8 secs

     total energy              =     -99.34977444 Ry
     estimated scf accuracy    <          1.1E-11 Ry

     iteration # 15     ecut=    60.00 Ry     beta= 0.30
     Davidson diagonalization with overlap
     ethr =  1.00E-13,  avg # of iterations =  2.0

     total cpu time spent up to now is        5.1 secs

     End of self-consistent calculation

          k = 0.1250 0.1255 0.1255 (  2430 PWs)   bands (ev):

    -7.7447  -1.2464  -1.1982  -1.1982   2.5048   2.5641   2.5641   5.8700
     5.8700   5.9075   7.2662   7.2662   7.3249  10.7608  12.4869  12.5319
    18.1098  18.1098  18.2052  19.5694

          k = 0.1250 0.1255 0.3765 (  2428 PWs)   bands (ev):

    -6.6078  -4.3806  -0.5071  -0.4748   2.0522   2.0541   4.8070   4.8233
     5.6856   6.8489   6.8929   7.9856   8.1019   8.3309  10.2947  11.1527
    18.2978  18.9566  20.6623  20.7422

          k = 0.1250 0.3765 0.3765 (  2427 PWs)   bands (ev):

    -5.4921  -3.3368  -3.3368  -1.5058   1.6352   3.3624   3.3624   5.4359
     5.4372   6.8978   6.8978   8.7978   9.0294   9.1404   9.1404  11.3658
    20.0622  21.0875  21.0875  21.2379

          k = 0.3750 0.1255 0.1255 (  2423 PWs)   bands (ev):

    -6.6169  -4.4071  -0.4761  -0.4761   2.0659   2.0659   4.8301   4.8301
     5.6802   6.8641   6.8641   7.9556   8.1129   8.3821  10.3353  11.1045
    18.3878  19.0279  20.6252  20.6252

          k = 0.3750 0.1255 0.3765 (  2430 PWs)   bands (ev):

    -5.5010  -3.3614  -3.3446  -1.5193   1.6658   3.3836   3.3931   5.4551
     5.4951   6.9404   6.9414   8.8423   8.9688   9.0865   9.1064  11.3129
    19.9687  21.0635  21.1536  21.2471

          k = 0.3750 0.3765 0.3765 (  2409 PWs)   bands (ev):

    -4.4240  -2.5153  -2.5031  -2.5031   0.6983   0.6983   0.7092   2.5634
     8.9938   9.0565   9.0565   9.6438   9.6438   9.6981  10.6137  10.6816
    20.7344  20.7344  20.8015  21.4897

     the Fermi energy is    15.3025 ev

!    total energy              =     -99.34977444 Ry
     estimated scf accuracy    <          4.4E-13 Ry
     smearing contrib. (-TS)   =      -0.00000000 Ry
     internal energy E=F+TS    =     -99.34977444 Ry

     The total energy is F=E-TS. E is the sum of the following terms:
     one-electron contribution =      32.24528001 Ry
     hartree contribution      =       7.81144311 Ry
     xc contribution           =     -37.44499539 Ry
     ewald contribution        =    -101.96150217 Ry

     convergence has been achieved in  15 iterations

     Forces acting on atoms (cartesian axes, Ry/au):

     atom    1 type  1   force =     0.00000000    0.00000002   -0.00000002
     atom    2 type  1   force =     0.00000000    0.00000000    0.00000000
     atom    3 type  1   force =     0.00000000   -0.00000002    0.00000002
     atom    4 type  1   force =     0.00000000    0.00000000    0.00000000
     atom    5 type  1   force =    -0.00000000    0.00000002    0.00000002
     atom    6 type  1   force =     0.00000000    0.00000000    0.00000000
     atom    7 type  1   force =    -0.00000000   -0.00000002   -0.00000002
     atom    8 type  1   force =     0.00000000    0.00000000    0.00000000
     The non-local contrib.  to forces
     atom    1 type  1   force =    -0.00000008    0.00000004   -0.00000004
     atom    2 type  1   force =     0.00000000    0.00000000    0.00000000
     atom    3 type  1   force =    -0.00000008   -0.00000004    0.00000004
     atom    4 type  1   force =     0.00000000    0.00000000    0.00000000
     atom    5 type  1   force =     0.00000008    0.00000004    0.00000004
     atom    6 type  1   force =     0.00000000    0.00000000    0.00000000
     atom    7 type  1   force =     0.00000008   -0.00000004   -0.00000004
     atom    8 type  1   force =     0.00000000    0.00000000    0.00000000
     The ionic contribution  to forces
     atom    1 type  1   force =    -0.00000000   -0.00000000    0.00000000
     atom    2 type  1   force =    -0.00000000   -0.00000000   -0.00000000
     atom    3 type  1   force =    -0.00000000   -0.00000000    0.00000000
     atom    4 type  1   force =    -0.00000000   -0.00000000   -0.00000000
     atom    5 type  1   force =    -0.00000000   -0.00000000    0.00000000
     atom    6 type  1   force =    -0.00000000   -0.00000000   -0.00000000
     atom    7 type  1   force =    -0.00000000    0.00000000    0.00000000
     atom    8 type  1   force =     0.00000000    0.00000000   -0.00000000
     The local contribution  to forces
     atom    1 type  1   force =    -0.00000046    0.00000015   -0.00000015
     atom    2 type  1   force =     0.00000000    0.00000000   -0.00000000
     atom    3 type  1   force =    -0.00000046   -0.00000015    0.00000015
     atom    4 type  1   force =    -0.00000000    0.00000000    0.00000000
     atom    5 type  1   force =     0.00000046    0.00000015    0.00000015
     atom    6 type  1   force =     0.00000000    0.00000000   -0.00000000
     atom    7 type  1   force =     0.00000046   -0.00000015   -0.00000015
     atom    8 type  1   force =     0.00000000    0.00000000    0.00000000
     The core correction contribution to forces
     atom    1 type  1   force =    -0.00000000    0.00000000   -0.00000000
     atom    2 type  1   force =     0.00000000    0.00000000    0.00000000
     atom    3 type  1   force =    -0.00000000   -0.00000000    0.00000000
     atom    4 type  1   force =     0.00000000   -0.00000000    0.00000000
     atom    5 type  1   force =     0.00000000    0.00000000    0.00000000
     atom    6 type  1   force =     0.00000000    0.00000000    0.00000000
     atom    7 type  1   force =     0.00000000   -0.00000000   -0.00000000
     atom    8 type  1   force =    -0.00000000    0.00000000    0.00000000
     The Hubbard contrib.    to forces
     atom    1 type  1   force =     0.00000000    0.00000000    0.00000000
     atom    2 type  1   force =     0.00000000    0.00000000    0.00000000
     atom    3 type  1   force =     0.00000000    0.00000000    0.00000000
     atom    4 type  1   force =     0.00000000    0.00000000    0.00000000
     atom    5 type  1   force =     0.00000000    0.00000000    0.00000000
     atom    6 type  1   force =     0.00000000    0.00000000    0.00000000
     atom    7 type  1   force =     0.00000000    0.00000000    0.00000000
     atom    8 type  1   force =     0.00000000    0.00000000    0.00000000
     The SCF correction term to forces
     atom    1 type  1   force =     0.00000054   -0.00000018    0.00000018
     atom    2 type  1   force =     0.00000000   -0.00000000    0.00000000
     atom    3 type  1   force =     0.00000054    0.00000018   -0.00000018
     atom    4 type  1   force =    -0.00000000    0.00000000    0.00000000
     atom    5 type  1   force =    -0.00000054   -0.00000018   -0.00000018
     atom    6 type  1   force =    -0.00000000   -0.00000000    0.00000000
     atom    7 type  1   force =    -0.00000054    0.00000018    0.00000018
     atom    8 type  1   force =    -0.00000000   -0.00000000    0.00000000

     Total force =     0.000000     Total SCF correction =     0.000001
     SCF correction compared to forces is large: reduce conv_thr to get better values


     Computing stress (Cartesian axis) and pressure

          total   stress  (Ry/bohr**3)                   (kbar)     P=      -29.49
  -0.00037081   0.00000000   0.00000000          -54.55        0.00        0.00
   0.00000000  -0.00011525   0.00000000            0.00      -16.95        0.00
   0.00000000   0.00000000  -0.00011525            0.00        0.00      -16.95


     BFGS Geometry Optimization
     Energy error            =      0.0E+00 Ry
     Gradient error          =      1.6E-08 Ry/Bohr

     bfgs converged in   1 scf cycles and   0 bfgs steps
     (criteria: energy <  1.0E-05 Ry, force <  1.0E-04 Ry/Bohr)

     End of BFGS Geometry Optimization

     Final energy             =     -99.3497744387 Ry
Begin final coordinates

ATOMIC_POSITIONS (crystal)
C             0.2500000000        0.7500000000        0.2500000000
C             0.0000000000        0.0000000000        0.5000000000
C             0.2500000000        0.2500000000        0.7500000000
C             0.0000000000        0.5000000000        0.0000000000
C             0.7500000000        0.7500000000        0.7500000000
C             0.5000000000        0.0000000000        0.0000000000
C             0.7500000000        0.2500000000        0.2500000000
C             0.5000000000        0.5000000000        0.5000000000
End final coordinates



     Writing all to output data dir ./C.save/
 
     init_run     :      0.35s CPU      0.41s WALL (       1 calls)
     electrons    :      4.34s CPU      4.57s WALL (       1 calls)
     forces       :      0.11s CPU      0.11s WALL (       1 calls)
     stress       :      0.64s CPU      0.66s WALL (       1 calls)

     Called by init_run:
     wfcinit      :      0.12s CPU      0.14s WALL (       1 calls)
     potinit      :      0.03s CPU      0.04s WALL (       1 calls)
     hinit0       :      0.13s CPU      0.16s WALL (       1 calls)

     Called by electrons:
     c_bands      :      3.29s CPU      3.47s WALL (      15 calls)
     sum_band     :      0.69s CPU      0.73s WALL (      15 calls)
     v_of_rho     :      0.18s CPU      0.18s WALL (      16 calls)
     newd         :      0.13s CPU      0.14s WALL (      16 calls)
     mix_rho      :      0.05s CPU      0.05s WALL (      15 calls)

     Called by c_bands:
     init_us_2    :      0.11s CPU      0.11s WALL (     198 calls)
     init_us_2:cp :      0.11s CPU      0.11s WALL (     198 calls)
     cegterg      :      2.91s CPU      3.08s WALL (      90 calls)

     Called by *egterg:
     cdiaghg      :      0.28s CPU      0.29s WALL (     322 calls)
     h_psi        :      2.02s CPU      2.19s WALL (     328 calls)
     s_psi        :      0.13s CPU      0.14s WALL (     328 calls)
     g_psi        :      0.01s CPU      0.01s WALL (     232 calls)

     Called by h_psi:
     h_psi:calbec :      0.20s CPU      0.21s WALL (     328 calls)
     vloc_psi     :      1.63s CPU      1.78s WALL (     328 calls)
     add_vuspsi   :      0.17s CPU      0.17s WALL (     328 calls)

     General routines
     calbec       :      0.29s CPU      0.30s WALL (     448 calls)
     fft          :      0.08s CPU      0.11s WALL (     201 calls)
     ffts         :      0.00s CPU      0.00s WALL (      15 calls)
     fftw         :      1.60s CPU      1.75s WALL (   11096 calls)
 
     Parallel routines
 
     PWSCF        :      5.56s CPU      5.91s WALL

 
   This run was terminated on:  15:19:19  29Nov2024            

=------------------------------------------------------------------------------=
   JOB DONE.
=------------------------------------------------------------------------------=
