
     Program PWSCF v.7.0 starts on  1Dec2023 at 18:37: 4 

     This program is part of the open-source Quantum ESPRESSO suite
     for quantum simulation of materials; please cite
         "P. Giannozzi et al., J. Phys.:Condens. Matter 21 395502 (2009);
         "P. Giannozzi et al., J. Phys.:Condens. Matter 29 465901 (2017);
         "P. Giannozzi et al., J. Chem. Phys. 152 154105 (2020);
          URL http://www.quantum-espresso.org", 
     in publications or presentations arising from this work. More details at
     http://www.quantum-espresso.org/quote

     Parallel version (MPI), running on    16 processors

     MPI processes distributed on     1 nodes
     R & G space division:  proc/nbgrp/npool/nimage =      16
     325389 MiB available memory on the printing compute node when the environment starts
 
     Waiting for input...
     Reading input from standard input
Warning: card &CELL ignored
Warning: card    CELL_DYNAMICS = 'BFGS' , ignored
Warning: card    CELL_FACTOR = 1.5, ignored
Warning: card    PRESS = 0 , ignored
Warning: card / ignored

     Current dimensions of program PWSCF are:
     Max number of different atomic species (ntypx) = 10
     Max number of k-points (npk) =  40000
     Max angular momentum in pseudopotentials (lmaxx) =  4
     Message from routine iosys:
     pot_extrapolation='first_order' not available, using 'atomic'
     Found identity + (  0.0000  0.5000 -0.5000) symmetry
     This is a supercell, fractional translations are disabled
     Message from routine setup:
     using ibrav=0 with symmetry is DISCOURAGED, use correct ibrav instead

     Subspace diagonalization in iterative solution of the eigenvalue problem:
     a serial algorithm will be used

 
     Parallelization info
     --------------------
     sticks:   dense  smooth     PW     G-vecs:    dense   smooth      PW
     Min          54      54     15                 1204     1204     193
     Max          55      55     17                 1207     1207     196
     Sum         869     869    257                19277    19277    3103
 
     Using Slab Decomposition
 


     bravais-lattice index     =            0
     lattice parameter (alat)  =       6.7133  a.u.
     unit-cell volume          =     306.1777 (a.u.)^3
     number of atoms/cell      =            8
     number of atomic types    =            1
     number of electrons       =        32.00
     number of Kohn-Sham states=           20
     kinetic-energy cutoff     =      60.0000  Ry
     charge density cutoff     =     240.0000  Ry
     scf convergence threshold =      1.0E-12
     mixing beta               =       0.3000
     number of iterations used =            8  plain     mixing
     energy convergence thresh.=      1.0E-05
     force convergence thresh. =      1.0E-04
     Exchange-correlation= PBE
                           (   1   4   3   4   0   0   0)
     nstep                     =          100


     celldm(1)=   6.713319  celldm(2)=   0.000000  celldm(3)=   0.000000
     celldm(4)=   0.000000  celldm(5)=   0.000000  celldm(6)=   0.000000

     crystal axes: (cart. coord. in units of alat)
               a(1) = (   1.000000   0.000000   0.000000 )  
               a(2) = (   0.000000   1.005960   0.000000 )  
               a(3) = (   0.000000   0.000000   1.005960 )  

     reciprocal axes: (cart. coord. in units 2 pi/alat)
               b(1) = (  1.000000  0.000000  0.000000 )  
               b(2) = (  0.000000  0.994075  0.000000 )  
               b(3) = (  0.000000  0.000000  0.994075 )  


     PseudoPot. # 1 for C  read from file:
     ./C.pbe-n-rrkjus_psl.1.0.0.UPF
     MD5 check sum: 1fdd950c42eb37d8afe3dd2f8d12311e
     Pseudo is Ultrasoft + core correction, Zval =  4.0
     Generated using &quot;atomic&quot; code by A. Dal Corso  v.6.3MaX
     Using radial grid of 1073 points,  4 beta functions with: 
                l(1) =   0
                l(2) =   0
                l(3) =   1
                l(4) =   1
     Q(r) pseudized with 0 coefficients 


     atomic species   valence    mass     pseudopotential
        C              4.00    12.00000     C ( 1.00)

      8 Sym. Ops. (no inversion) found



   Cartesian axes

     site n.     atom                  positions (alat units)
         1           C   tau(   1) = (   0.2500000   0.7544703   0.2514901  )
         2           C   tau(   2) = (   0.0000000   0.0000000   0.5029802  )
         3           C   tau(   3) = (   0.2500000   0.2514901   0.7544703  )
         4           C   tau(   4) = (   0.0000000   0.5029802   0.0000000  )
         5           C   tau(   5) = (   0.7500000   0.7544703   0.7544703  )
         6           C   tau(   6) = (   0.5000000   0.0000000   0.0000000  )
         7           C   tau(   7) = (   0.7500000   0.2514901   0.2514901  )
         8           C   tau(   8) = (   0.5000000   0.5029802   0.5029802  )

     number of k points=    40  Gaussian smearing, width (Ry)=  0.0500
                       cart. coord. in units 2pi/alat
        k(    1) = (   0.0625000   0.0621297   0.0621297), wk =   0.0312500
        k(    2) = (   0.0625000   0.0621297   0.1863890), wk =   0.0625000
        k(    3) = (   0.0625000   0.0621297   0.3106484), wk =   0.0625000
        k(    4) = (   0.0625000   0.0621297   0.4349077), wk =   0.0625000
        k(    5) = (   0.0625000   0.1863890   0.1863890), wk =   0.0312500
        k(    6) = (   0.0625000   0.1863890   0.3106484), wk =   0.0625000
        k(    7) = (   0.0625000   0.1863890   0.4349077), wk =   0.0625000
        k(    8) = (   0.0625000   0.3106484   0.3106484), wk =   0.0312500
        k(    9) = (   0.0625000   0.3106484   0.4349077), wk =   0.0625000
        k(   10) = (   0.0625000   0.4349077   0.4349077), wk =   0.0312500
        k(   11) = (   0.1875000   0.0621297   0.0621297), wk =   0.0312500
        k(   12) = (   0.1875000   0.0621297   0.1863890), wk =   0.0625000
        k(   13) = (   0.1875000   0.0621297   0.3106484), wk =   0.0625000
        k(   14) = (   0.1875000   0.0621297   0.4349077), wk =   0.0625000
        k(   15) = (   0.1875000   0.1863890   0.1863890), wk =   0.0312500
        k(   16) = (   0.1875000   0.1863890   0.3106484), wk =   0.0625000
        k(   17) = (   0.1875000   0.1863890   0.4349077), wk =   0.0625000
        k(   18) = (   0.1875000   0.3106484   0.3106484), wk =   0.0312500
        k(   19) = (   0.1875000   0.3106484   0.4349077), wk =   0.0625000
        k(   20) = (   0.1875000   0.4349077   0.4349077), wk =   0.0312500
        k(   21) = (   0.3125000   0.0621297   0.0621297), wk =   0.0312500
        k(   22) = (   0.3125000   0.0621297   0.1863890), wk =   0.0625000
        k(   23) = (   0.3125000   0.0621297   0.3106484), wk =   0.0625000
        k(   24) = (   0.3125000   0.0621297   0.4349077), wk =   0.0625000
        k(   25) = (   0.3125000   0.1863890   0.1863890), wk =   0.0312500
        k(   26) = (   0.3125000   0.1863890   0.3106484), wk =   0.0625000
        k(   27) = (   0.3125000   0.1863890   0.4349077), wk =   0.0625000
        k(   28) = (   0.3125000   0.3106484   0.3106484), wk =   0.0312500
        k(   29) = (   0.3125000   0.3106484   0.4349077), wk =   0.0625000
        k(   30) = (   0.3125000   0.4349077   0.4349077), wk =   0.0312500
        k(   31) = (   0.4375000   0.0621297   0.0621297), wk =   0.0312500
        k(   32) = (   0.4375000   0.0621297   0.1863890), wk =   0.0625000
        k(   33) = (   0.4375000   0.0621297   0.3106484), wk =   0.0625000
        k(   34) = (   0.4375000   0.0621297   0.4349077), wk =   0.0625000
        k(   35) = (   0.4375000   0.1863890   0.1863890), wk =   0.0312500
        k(   36) = (   0.4375000   0.1863890   0.3106484), wk =   0.0625000
        k(   37) = (   0.4375000   0.1863890   0.4349077), wk =   0.0625000
        k(   38) = (   0.4375000   0.3106484   0.3106484), wk =   0.0312500
        k(   39) = (   0.4375000   0.3106484   0.4349077), wk =   0.0625000
        k(   40) = (   0.4375000   0.4349077   0.4349077), wk =   0.0312500

     Dense  grid:    19277 G-vectors     FFT dimensions: (  36,  36,  36)

     Estimated max dynamical RAM per process >       4.36 MB

     Estimated total dynamical RAM >      69.75 MB

     Check: negative core charge=   -0.000040

     Initial potential from superposition of free atoms

     starting charge      31.9997, renormalised to      32.0000
     Starting wfcs are   32 randomized atomic wfcs

     total cpu time spent up to now is        0.3 secs

     Self-consistent Calculation

     iteration #  1     ecut=    60.00 Ry     beta= 0.30
     Davidson diagonalization with overlap
     ethr =  1.00E-02,  avg # of iterations =  2.5

     total cpu time spent up to now is        0.7 secs

     total energy              =     -99.40642860 Ry
     estimated scf accuracy    <       0.45874472 Ry

     iteration #  2     ecut=    60.00 Ry     beta= 0.30
     Davidson diagonalization with overlap
     ethr =  1.43E-03,  avg # of iterations =  1.1

     total cpu time spent up to now is        0.9 secs

     total energy              =     -99.33236459 Ry
     estimated scf accuracy    <       0.18597728 Ry

     iteration #  3     ecut=    60.00 Ry     beta= 0.30
     Davidson diagonalization with overlap
     ethr =  5.81E-04,  avg # of iterations =  2.7

     total cpu time spent up to now is        1.1 secs

     total energy              =     -99.34937677 Ry
     estimated scf accuracy    <       0.00153862 Ry

     iteration #  4     ecut=    60.00 Ry     beta= 0.30
     Davidson diagonalization with overlap
     c_bands:  2 eigenvalues not converged
     c_bands:  2 eigenvalues not converged
     c_bands:  1 eigenvalues not converged
     c_bands:  2 eigenvalues not converged
     ethr =  4.81E-06,  avg # of iterations = 11.9

     total cpu time spent up to now is        1.7 secs

     total energy              =     -99.34957853 Ry
     estimated scf accuracy    <       0.00081869 Ry

     iteration #  5     ecut=    60.00 Ry     beta= 0.30
     Davidson diagonalization with overlap
     ethr =  2.56E-06,  avg # of iterations =  2.3

     total cpu time spent up to now is        2.0 secs

     total energy              =     -99.34965137 Ry
     estimated scf accuracy    <       0.00000275 Ry

     iteration #  6     ecut=    60.00 Ry     beta= 0.30
     Davidson diagonalization with overlap
     ethr =  8.60E-09,  avg # of iterations =  4.1

     total cpu time spent up to now is        2.3 secs

     total energy              =     -99.34965967 Ry
     estimated scf accuracy    <       0.00001069 Ry

     iteration #  7     ecut=    60.00 Ry     beta= 0.30
     Davidson diagonalization with overlap
     ethr =  8.60E-09,  avg # of iterations =  2.0

     total cpu time spent up to now is        2.6 secs

     total energy              =     -99.34966098 Ry
     estimated scf accuracy    <       0.00000004 Ry

     iteration #  8     ecut=    60.00 Ry     beta= 0.30
     Davidson diagonalization with overlap
     ethr =  1.27E-10,  avg # of iterations =  2.5

     total cpu time spent up to now is        2.9 secs

     total energy              =     -99.34966099 Ry
     estimated scf accuracy    <          5.3E-09 Ry

     iteration #  9     ecut=    60.00 Ry     beta= 0.30
     Davidson diagonalization with overlap
     ethr =  1.67E-11,  avg # of iterations =  1.8

     total cpu time spent up to now is        3.1 secs

     total energy              =     -99.34966099 Ry
     estimated scf accuracy    <          7.1E-09 Ry

     iteration # 10     ecut=    60.00 Ry     beta= 0.30
     Davidson diagonalization with overlap
     ethr =  1.67E-11,  avg # of iterations =  1.0

     total cpu time spent up to now is        3.3 secs

     total energy              =     -99.34966099 Ry
     estimated scf accuracy    <          4.3E-09 Ry

     iteration # 11     ecut=    60.00 Ry     beta= 0.30
     Davidson diagonalization with overlap
     ethr =  1.34E-11,  avg # of iterations =  1.3

     total cpu time spent up to now is        3.5 secs

     total energy              =     -99.34966099 Ry
     estimated scf accuracy    <          3.1E-10 Ry

     iteration # 12     ecut=    60.00 Ry     beta= 0.30
     Davidson diagonalization with overlap
     ethr =  9.59E-13,  avg # of iterations =  2.0

     total cpu time spent up to now is        3.8 secs

     total energy              =     -99.34966099 Ry
     estimated scf accuracy    <          2.5E-11 Ry

     iteration # 13     ecut=    60.00 Ry     beta= 0.30
     Davidson diagonalization with overlap
     ethr =  1.00E-13,  avg # of iterations =  2.0

     total cpu time spent up to now is        4.1 secs

     total energy              =     -99.34966099 Ry
     estimated scf accuracy    <          2.0E-12 Ry

     iteration # 14     ecut=    60.00 Ry     beta= 0.30
     Davidson diagonalization with overlap
     ethr =  1.00E-13,  avg # of iterations =  1.0

     total cpu time spent up to now is        4.3 secs

     End of self-consistent calculation

          k = 0.0625 0.0621 0.0621 (  2424 PWs)   bands (ev):

    -8.0194  -0.3777  -0.3777  -0.2950   1.5976   1.5976   1.6949   6.6499
     6.7311   6.7311   7.0687   7.1562   7.1562  12.6003  13.1146  13.1782
    17.9878  18.1303  18.1303  18.7555

          k = 0.0625 0.0621 0.1864 (  2415 PWs)   bands (ev):

    -7.7328  -2.1970  -0.1748  -0.0964   1.7216   1.8078   3.6519   5.8399
     5.9087   6.8942   6.9823   7.0450   7.4341  11.4842  12.2380  12.7769
    17.8803  18.7615  18.8964  19.0222

          k = 0.0625 0.0621 0.3106 (  2402 PWs)   bands (ev):

    -7.1619  -3.8120   0.1846   0.2502   1.8801   1.9368   5.0521   5.0943
     5.6623   6.3490   6.4252   7.7022   7.9833  10.1696  11.0096  11.7213
    17.8468  18.6839  20.3886  20.5164

          k = 0.0625 0.0621 0.4349 (  2402 PWs)   bands (ev):

    -6.3116  -5.1905   0.5477   0.5781   1.9255   1.9397   4.6413   4.6497
     5.8784   5.9134   7.4202   8.7765   8.8067   8.8400   9.8149  10.2769
    18.0100  18.3142  22.4587  22.5683

          k = 0.0625 0.1864 0.1864 (  2401 PWs)   bands (ev):

    -7.4471  -1.9542  -1.9542   0.0404   1.8319   3.5775   3.5775   4.8285
     6.3290   6.3290   7.3080   7.3080   7.5399  10.2472  11.5930  12.7793
    18.5792  18.8165  18.8165  19.7348

          k = 0.0625 0.1864 0.3106 (  2402 PWs)   bands (ev):

    -6.8783  -3.5493  -1.4874   0.1348   1.8251   3.2589   4.3220   5.1641
     5.6334   6.9803   7.1807   7.5941   8.0499   8.9155  10.4489  12.1293
    18.8550  19.4700  19.6648  20.5169

          k = 0.0625 0.1864 0.4349 (  2406 PWs)   bands (ev):

    -6.0318  -4.9169  -0.8508  -0.1947   2.0687   2.6584   4.4824   5.0131
     6.4320   6.9521   7.2690   7.6367   8.2038   9.2809   9.3548  10.8738
    19.0443  19.3427  21.1750  22.4936

          k = 0.0625 0.3106 0.3106 (  2401 PWs)   bands (ev):

    -6.3141  -3.0334  -3.0334  -0.4477   1.9578   4.3060   4.3060   4.3215
     6.4177   6.4177   7.6073   8.2200   8.2200   8.4300   9.3897  12.0342
    19.4744  20.5931  20.5931  20.7874

          k = 0.0625 0.3106 0.4349 (  2397 PWs)   bands (ev):

    -5.4758  -4.3754  -2.2891  -1.3753   2.5242   3.3582   4.8153   5.2896
     5.5688   6.3815   7.2877   8.2882   8.4967   8.6682   9.7955  11.1912
    20.4896  20.7589  20.9415  22.3006

          k = 0.0625 0.4349 0.4349 (  2408 PWs)   bands (ev):

    -4.6528  -3.5797  -3.5797  -2.5584   3.2520   4.1954   4.1954   5.2113
     5.4635   6.3214   6.3214   7.2509   9.6208   9.9513   9.9513  10.9107
    20.6403  21.6230  21.6230  21.6798

          k = 0.1875 0.0621 0.0621 (  2412 PWs)   bands (ev):

    -7.7293  -2.1313  -0.1732  -0.1732   1.7210   1.7210   3.7569   5.8986
     5.8986   6.9695   6.9695   6.9705   7.3494  11.4773  12.1913  12.8310
    17.7355  18.9151  18.9151  18.9397

          k = 0.1875 0.0621 0.1864 (  2403 PWs)   bands (ev):

    -7.4437  -1.9516  -1.8902  -0.0275   1.7626   3.5720   3.6495   4.8561
     6.2761   6.3168   7.2339   7.3024   7.6285  10.2424  11.5404  12.8364
    18.6793  18.7189  18.8338  19.6995

          k = 0.1875 0.0621 0.3106 (  2403 PWs)   bands (ev):

    -6.8749  -3.5463  -1.4278   0.0993   1.7802   3.2681   4.2971   5.1525
     5.5937   6.9576   7.1550   7.6898   8.0661   8.9072  10.4027  12.1787
    18.8702  19.5956  19.6680  20.3879

          k = 0.1875 0.0621 0.4349 (  2405 PWs)   bands (ev):

    -6.0284  -4.9137  -0.8023  -0.1753   2.0204   2.6213   4.4229   4.9555
     6.4188   7.0017   7.3561   7.6253   8.1636   9.2376   9.3909  10.9169
    19.0566  19.3513  21.2871  22.4168

          k = 0.1875 0.1864 0.1864 (  2401 PWs)   bands (ev):

    -7.1591  -1.7245  -1.7245  -1.6655   3.1490   3.1490   3.1698   5.7118
     5.7118   5.7396   7.8039   7.8898   7.8898   8.8822  12.0858  12.1601
    18.7225  18.8587  18.8587  20.4989

          k = 0.1875 0.1864 0.3106 (  2399 PWs)   bands (ev):

    -6.5926  -3.2896  -1.3119  -1.2606   2.3094   2.3309   4.1584   5.6446
     5.7083   7.3011   7.4997   7.8946   7.9770   8.4031  11.1247  11.8073
    19.1223  19.6585  19.7791  20.2683

          k = 0.1875 0.1864 0.4349 (  2409 PWs)   bands (ev):

    -5.7502  -4.6430  -0.8758  -0.8503   1.5799   1.5980   5.1256   5.8231
     5.8583   6.2316   7.7454   7.7848   9.0867   9.1548  10.0773  10.7018
    19.4789  19.8825  21.3140  21.4133

          k = 0.1875 0.3106 0.3106 (  2403 PWs)   bands (ev):

    -6.0312  -2.7916  -2.7916  -1.0907   1.3604   2.9601   2.9601   6.0654
     6.1028   7.3253   7.3253   8.6128   8.6128   8.6519  10.5828  11.6893
    19.7040  20.1129  20.1129  21.0297

          k = 0.1875 0.3106 0.4349 (  2399 PWs)   bands (ev):

    -5.1985  -4.1091  -2.1009  -1.3831   1.2063   1.8922   3.7933   4.8486
     6.5618   7.0533   8.6414   8.7818   8.8922   9.6448   9.7639  11.0064
    20.5306  20.6921  20.9307  21.5995

          k = 0.1875 0.4349 0.4349 (  2395 PWs)   bands (ev):

    -4.3845  -3.3324  -3.3324  -2.3661   1.6906   2.6129   2.6129   3.6195
     7.2465   7.9670   7.9670   8.8267   9.7528  10.0235  10.0235  10.8641
    20.8407  21.6584  21.6585  21.7626

          k = 0.3125 0.0621 0.0621 (  2399 PWs)   bands (ev):

    -7.1516  -3.7632   0.1868   0.1868   1.8737   1.8737   5.0771   5.0771
     5.7566   6.3995   6.3995   7.6497   7.9039  10.1564  10.9566  11.7824
    17.7069  18.5843  20.5616  20.5616

          k = 0.3125 0.0621 0.1864 (  2402 PWs)   bands (ev):

    -6.8681  -3.5012  -1.4807   0.0967   1.7765   3.2377   4.2955   5.1880
     5.6050   6.9789   7.1388   7.6656   8.0301   8.8992  10.3877  12.2022
    18.7213  19.5729  19.6299  20.5582

          k = 0.3125 0.0621 0.3106 (  2401 PWs)   bands (ev):

    -6.3040  -3.0248  -2.9871  -0.4394   1.9016   4.2553   4.2768   4.2768
     6.3543   6.3702   7.5844   8.2504   8.2755   8.5201   9.3302  12.1062
    19.6152  20.4674  20.6281  20.7574

          k = 0.3125 0.0621 0.4349 (  2401 PWs)   bands (ev):

    -5.4659  -4.3659  -2.2468  -1.3424   2.4637   3.3053   4.7360   5.2596
     5.4913   6.3539   7.2321   8.2300   8.5892   8.7688   9.8441  11.2536
    20.6116  20.7858  20.9572  22.4567

          k = 0.3125 0.1864 0.1864 (  2406 PWs)   bands (ev):

    -6.5857  -3.2454  -1.3084  -1.3084   2.3179   2.3179   4.1407   5.6393
     5.6393   7.3766   7.4879   7.9620   7.9620   8.3221  11.0671  11.8746
    18.9933  19.8104  19.8104  20.1848

          k = 0.3125 0.1864 0.3106 (  2409 PWs)   bands (ev):

    -6.0245  -2.7862  -2.7498  -1.1179   1.3666   2.9225   2.9446   5.9748
     6.0886   7.2945   7.3611   8.5851   8.6288   8.7395  10.5197  11.7600
    19.8360  20.0014  20.1383  21.0137

          k = 0.3125 0.1864 0.4349 (  2403 PWs)   bands (ev):

    -5.1920  -4.1029  -2.0654  -1.3683   1.1789   1.8508   3.7773   4.8331
     6.4793   7.0102   8.5790   8.8348   8.9802   9.5822   9.8187  11.0698
    20.5485  20.8050  20.9427  21.5434

          k = 0.3125 0.3106 0.3106 (  2403 PWs)   bands (ev):

    -5.4699  -2.3485  -2.3485  -2.3164   1.6076   1.6337   1.6337   4.6466
     7.8708   7.8708   7.9699   9.0789   9.1624   9.1624  11.0917  11.1839
    20.1243  20.2399  20.2399  21.5285

          k = 0.3125 0.3106 0.4349 (  2400 PWs)   bands (ev):

    -4.6510  -3.5910  -1.8781  -1.8616   0.6891   0.7039   2.3584   3.3832
     8.1924   8.2388   9.3734   9.4150   9.5707   9.7585  10.4450  10.7751
    20.7423  21.0582  21.1506  21.2165

          k = 0.3125 0.4349 0.4349 (  2402 PWs)   bands (ev):

    -3.8620  -2.8771  -2.8771  -2.1343   0.4583   1.1821   1.1821   2.1375
     8.9536   9.4059   9.4059   9.9887  10.1063  10.1378  10.1378  10.7490
    21.1878  21.5454  21.5455  21.7919

          k = 0.4375 0.0621 0.0621 (  2407 PWs)   bands (ev):

    -6.2913  -5.1572   0.5404   0.5404   1.9047   1.9047   4.6353   4.6353
     5.8935   5.8935   7.4624   8.7156   8.8012   8.8352   9.7532  10.3294
    17.8802  18.1983  22.6394  22.6394

          k = 0.4375 0.0621 0.1864 (  2405 PWs)   bands (ev):

    -6.0115  -4.8839  -0.8416  -0.1954   2.0192   2.6180   4.4287   4.9649
     6.4177   6.9740   7.3166   7.6142   8.1407   9.2142   9.4090  10.9506
    18.9194  19.2312  21.3528  22.5728

          k = 0.4375 0.0621 0.3106 (  2405 PWs)   bands (ev):

    -5.4559  -4.3431  -2.2737  -1.3557   2.4674   3.3124   4.7422   5.2503
     5.5045   6.3469   7.2152   8.2195   8.5445   8.7377   9.8841  11.2797
    20.6427  20.6537  20.8468  22.4202

          k = 0.4375 0.0621 0.4349 (  2411 PWs)   bands (ev):

    -4.6335  -3.5616  -3.5489  -2.5309   3.1953   4.1439   4.1499   5.1694
     5.3846   6.2432   6.2519   7.1805   9.7104  10.0189  10.0505  10.9948
    20.7835  21.7456  21.7824  21.8219

          k = 0.4375 0.1864 0.1864 (  2408 PWs)   bands (ev):

    -5.7335  -4.6135  -0.8758  -0.8758   1.5795   1.5795   5.0991   5.8009
     5.8009   6.2097   7.7753   7.7753   9.0723   9.1839  10.0128  10.7828
    19.3606  19.7785  21.4721  21.4721

          k = 0.4375 0.1864 0.3106 (  2404 PWs)   bands (ev):

    -5.1820  -4.0804  -2.0899  -1.3771   1.1805   1.8643   3.7573   4.8216
     6.4749   6.9875   8.5904   8.8247   8.9610   9.5743   9.8325  11.0923
    20.4316  20.8399  20.8517  21.6509

          k = 0.4375 0.1864 0.4349 (  2394 PWs)   bands (ev):

    -4.3687  -3.3180  -3.3057  -2.3443   1.6525   2.5733   2.5829   3.5900
     7.1580   7.8881   7.8909   8.7510   9.8402  10.0936  10.1124  10.9464
    20.9719  21.7287  21.7439  21.8862

          k = 0.4375 0.3106 0.3106 (  2397 PWs)   bands (ev):

    -4.6413  -3.5696  -1.8760  -1.8760   0.6956   0.6956   2.3351   3.3699
     8.1565   8.1565   9.4338   9.4338   9.6710   9.6749  10.3776  10.8516
    20.6482  21.1496  21.1704  21.1704

          k = 0.4375 0.3106 0.4349 (  2394 PWs)   bands (ev):

    -3.8529  -2.8696  -2.8587  -2.1265   0.4445   1.1595   1.1691   2.1237
     8.8623   9.3226   9.3504  10.0271  10.0733  10.1996  10.2136  10.8302
    21.2941  21.4997  21.5474  21.7932

          k = 0.4375 0.4349 0.4349 (  2393 PWs)   bands (ev):

    -3.1328  -2.3856  -2.3856  -2.3799   0.1839   0.1892   0.1892   0.9215
    10.1208  10.1208  10.2130  10.2758  10.3635  10.3635  10.5474  10.6515
    21.5595  21.6201  21.6203  21.7990

     the Fermi energy is    15.4159 ev

!    total energy              =     -99.34966099 Ry
     estimated scf accuracy    <          5.1E-13 Ry
     smearing contrib. (-TS)   =      -0.00000003 Ry
     internal energy E=F+TS    =     -99.34966096 Ry

     The total energy is F=E-TS. E is the sum of the following terms:
     one-electron contribution =      32.69509858 Ry
     hartree contribution      =       7.77018955 Ry
     xc contribution           =     -37.51271044 Ry
     ewald contribution        =    -102.30223865 Ry

     convergence has been achieved in  14 iterations

     Forces acting on atoms (cartesian axes, Ry/au):

     atom    1 type  1   force =    -0.00000001   -0.00000004    0.00000004
     atom    2 type  1   force =     0.00000000    0.00000000    0.00000000
     atom    3 type  1   force =    -0.00000001    0.00000004   -0.00000004
     atom    4 type  1   force =     0.00000000    0.00000000    0.00000000
     atom    5 type  1   force =     0.00000001   -0.00000004   -0.00000004
     atom    6 type  1   force =     0.00000000    0.00000000    0.00000000
     atom    7 type  1   force =     0.00000001    0.00000004    0.00000004
     atom    8 type  1   force =     0.00000000    0.00000000    0.00000000

     Total force =     0.000000     Total SCF correction =     0.000001
     SCF correction compared to forces is large: reduce conv_thr to get better values


     Computing stress (Cartesian axis) and pressure

          total   stress  (Ry/bohr**3)                   (kbar)     P=       13.81
   0.00034403   0.00000000   0.00000000           50.61        0.00        0.00
   0.00000000  -0.00003122   0.00000000            0.00       -4.59        0.00
   0.00000000   0.00000000  -0.00003122            0.00        0.00       -4.59


     BFGS Geometry Optimization
     Energy error            =      0.0E+00 Ry
     Gradient error          =      4.0E-08 Ry/Bohr

     bfgs converged in   1 scf cycles and   0 bfgs steps
     (criteria: energy <  1.0E-05 Ry, force <  1.0E-04 Ry/Bohr)

     End of BFGS Geometry Optimization

     Final energy             =     -99.3496609878 Ry
Begin final coordinates

ATOMIC_POSITIONS (crystal)
C             0.2500000000        0.7500000000        0.2500000000
C             0.0000000000        0.0000000000        0.5000000000
C             0.2500000000        0.2500000000        0.7500000000
C             0.0000000000        0.5000000000        0.0000000000
C             0.7500000000        0.7500000000        0.7500000000
C             0.5000000000        0.0000000000        0.0000000000
C             0.7500000000        0.2500000000        0.2500000000
C             0.5000000000        0.5000000000        0.5000000000
End final coordinates



     Writing all to output data dir ./C.save/
 
     init_run     :      0.24s CPU      0.28s WALL (       1 calls)
     electrons    :      3.86s CPU      3.97s WALL (       1 calls)
     forces       :      0.03s CPU      0.03s WALL (       1 calls)
     stress       :      0.08s CPU      0.08s WALL (       1 calls)

     Called by init_run:
     wfcinit      :      0.16s CPU      0.17s WALL (       1 calls)
     potinit      :      0.01s CPU      0.01s WALL (       1 calls)
     hinit0       :      0.06s CPU      0.10s WALL (       1 calls)

     Called by electrons:
     c_bands      :      3.31s CPU      3.41s WALL (      14 calls)
     sum_band     :      0.51s CPU      0.52s WALL (      14 calls)
     v_of_rho     :      0.02s CPU      0.02s WALL (      15 calls)
     newd         :      0.01s CPU      0.01s WALL (      15 calls)
     mix_rho      :      0.01s CPU      0.01s WALL (      14 calls)

     Called by c_bands:
     init_us_2    :      0.05s CPU      0.05s WALL (    1240 calls)
     init_us_2:cp :      0.05s CPU      0.05s WALL (    1240 calls)
     cegterg      :      3.13s CPU      3.22s WALL (     560 calls)

     Called by *egterg:
     cdiaghg      :      0.77s CPU      0.79s WALL (    2085 calls)
     h_psi        :      2.19s CPU      2.26s WALL (    2125 calls)
     s_psi        :      0.05s CPU      0.05s WALL (    2125 calls)
     g_psi        :      0.01s CPU      0.01s WALL (    1525 calls)

     Called by h_psi:
     h_psi:calbec :      0.13s CPU      0.14s WALL (    2125 calls)
     vloc_psi     :      1.99s CPU      2.06s WALL (    2125 calls)
     add_vuspsi   :      0.05s CPU      0.06s WALL (    2125 calls)

     General routines
     calbec       :      0.18s CPU      0.19s WALL (    2885 calls)
     fft          :      0.04s CPU      0.08s WALL (     190 calls)
     ffts         :      0.00s CPU      0.00s WALL (      14 calls)
     fftw         :      2.16s CPU      2.23s WALL (   69898 calls)
 
     Parallel routines
 
     PWSCF        :      4.33s CPU      4.50s WALL

 
   This run was terminated on:  18:37: 8   1Dec2023            

=------------------------------------------------------------------------------=
   JOB DONE.
=------------------------------------------------------------------------------=
