
     Program PWSCF v.7.2 starts on 22Nov2024 at 11:52: 5 

     This program is part of the open-source Quantum ESPRESSO suite
     for quantum simulation of materials; please cite
         "P. Giannozzi et al., J. Phys.:Condens. Matter 21 395502 (2009);
         "P. Giannozzi et al., J. Phys.:Condens. Matter 29 465901 (2017);
         "P. Giannozzi et al., J. Chem. Phys. 152 154105 (2020);
          URL http://www.quantum-espresso.org", 
     in publications or presentations arising from this work. More details at
     http://www.quantum-espresso.org/quote

     Parallel version (MPI), running on     8 processors

     MPI processes distributed on     1 nodes
     494526 MiB available memory on the printing compute node when the environment starts
 
     Waiting for input...
     Reading input from standard input

     Current dimensions of program PWSCF are:
     Max number of different atomic species (ntypx) = 10
     Max number of k-points (npk) =  40000
     Max angular momentum in pseudopotentials (lmaxx) =  4
     Message from routine iosys:
     pot_extrapolation='first_order' not available, using 'atomic'
     Found identity + (  0.0000  0.5000 -0.5000) symmetry
     This is a supercell, fractional translations are disabled
     Message from routine setup:
     using ibrav=0 with symmetry is DISCOURAGED, use correct ibrav instead
 
     R & G space division:  proc/nbgrp/npool/nimage =       8
     Subspace diagonalization in iterative solution of the eigenvalue problem:
     a serial algorithm will be used

 
     Parallelization info
     --------------------
     sticks:   dense  smooth     PW     G-vecs:    dense   smooth      PW
     Min         109     109     32                 2422     2422     389
     Max         111     111     34                 2423     2423     390
     Sum         877     877    261                19381    19381    3119
 
     Using Slab Decomposition
 


     bravais-lattice index     =            0
     lattice parameter (alat)  =       6.7533  a.u.
     unit-cell volume          =     307.8829 (a.u.)^3
     number of atoms/cell      =            8
     number of atomic types    =            1
     number of electrons       =        32.00
     number of Kohn-Sham states=           20
     kinetic-energy cutoff     =      60.0000  Ry
     charge density cutoff     =     240.0000  Ry
     scf convergence threshold =      1.0E-12
     mixing beta               =       0.3000
     number of iterations used =            8  plain     mixing
     energy convergence thresh.=      1.0E-05
     force convergence thresh. =      1.0E-04
     press convergence thresh. =      5.0E-01
     Exchange-correlation= PBE
                           (   1   4   3   4   0   0   0)
     nstep                     =         1000


     celldm(1)=   6.753333  celldm(2)=   0.000000  celldm(3)=   0.000000
     celldm(4)=   0.000000  celldm(5)=   0.000000  celldm(6)=   0.000000

     crystal axes: (cart. coord. in units of alat)
               a(1) = (   1.000000   0.000000   0.000000 )  
               a(2) = (   0.000000   1.000000   0.000000 )  
               a(3) = (   0.000000   0.000000   0.999611 )  

     reciprocal axes: (cart. coord. in units 2 pi/alat)
               b(1) = (  1.000000  0.000000  0.000000 )  
               b(2) = (  0.000000  1.000000  0.000000 )  
               b(3) = (  0.000000  0.000000  1.000389 )  


     PseudoPot. # 1 for C  read from file:
     ./C.pbe-n-rrkjus_psl.1.0.0.UPF
     MD5 check sum: 1fdd950c42eb37d8afe3dd2f8d12311e
     Pseudo is Ultrasoft + core correction, Zval =  4.0
     Generated using &quot;atomic&quot; code by A. Dal Corso  v.6.3MaX
     Using radial grid of 1073 points,  4 beta functions with: 
                l(1) =   0
                l(2) =   0
                l(3) =   1
                l(4) =   1
     Q(r) pseudized with 0 coefficients 


     atomic species   valence    mass     pseudopotential
        C              4.00    12.00000     C ( 1.00)

      8 Sym. Ops. (no inversion) found



   Cartesian axes

     site n.     atom                  positions (alat units)
         1           C   tau(   1) = (   0.2500000   0.7500000   0.2499028  )
         2           C   tau(   2) = (   0.0000000   0.0000000   0.4998055  )
         3           C   tau(   3) = (   0.2500000   0.2500000   0.7497083  )
         4           C   tau(   4) = (   0.0000000   0.5000000   0.0000000  )
         5           C   tau(   5) = (   0.7500000   0.7500000   0.7497083  )
         6           C   tau(   6) = (   0.5000000   0.0000000   0.0000000  )
         7           C   tau(   7) = (   0.7500000   0.2500000   0.2499028  )
         8           C   tau(   8) = (   0.5000000   0.5000000   0.4998055  )

     number of k points=    40  Gaussian smearing, width (Ry)=  0.0500
                       cart. coord. in units 2pi/alat
        k(    1) = (   0.0625000   0.0625000   0.0625243), wk =   0.0312500
        k(    2) = (   0.0625000   0.0625000   0.1875730), wk =   0.0312500
        k(    3) = (   0.0625000   0.0625000   0.3126216), wk =   0.0312500
        k(    4) = (   0.0625000   0.0625000   0.4376702), wk =   0.0312500
        k(    5) = (   0.0625000   0.1875000   0.0625243), wk =   0.0625000
        k(    6) = (   0.0625000   0.1875000   0.1875730), wk =   0.0625000
        k(    7) = (   0.0625000   0.1875000   0.3126216), wk =   0.0625000
        k(    8) = (   0.0625000   0.1875000   0.4376702), wk =   0.0625000
        k(    9) = (   0.0625000   0.3125000   0.0625243), wk =   0.0625000
        k(   10) = (   0.0625000   0.3125000   0.1875730), wk =   0.0625000
        k(   11) = (   0.0625000   0.3125000   0.3126216), wk =   0.0625000
        k(   12) = (   0.0625000   0.3125000   0.4376702), wk =   0.0625000
        k(   13) = (   0.0625000   0.4375000   0.0625243), wk =   0.0625000
        k(   14) = (   0.0625000   0.4375000   0.1875730), wk =   0.0625000
        k(   15) = (   0.0625000   0.4375000   0.3126216), wk =   0.0625000
        k(   16) = (   0.0625000   0.4375000   0.4376702), wk =   0.0625000
        k(   17) = (   0.1875000   0.1875000   0.0625243), wk =   0.0312500
        k(   18) = (   0.1875000   0.1875000   0.1875730), wk =   0.0312500
        k(   19) = (   0.1875000   0.1875000   0.3126216), wk =   0.0312500
        k(   20) = (   0.1875000   0.1875000   0.4376702), wk =   0.0312500
        k(   21) = (   0.1875000   0.3125000   0.0625243), wk =   0.0625000
        k(   22) = (   0.1875000   0.3125000   0.1875730), wk =   0.0625000
        k(   23) = (   0.1875000   0.3125000   0.3126216), wk =   0.0625000
        k(   24) = (   0.1875000   0.3125000   0.4376702), wk =   0.0625000
        k(   25) = (   0.1875000   0.4375000   0.0625243), wk =   0.0625000
        k(   26) = (   0.1875000   0.4375000   0.1875730), wk =   0.0625000
        k(   27) = (   0.1875000   0.4375000   0.3126216), wk =   0.0625000
        k(   28) = (   0.1875000   0.4375000   0.4376702), wk =   0.0625000
        k(   29) = (   0.3125000   0.3125000   0.0625243), wk =   0.0312500
        k(   30) = (   0.3125000   0.3125000   0.1875730), wk =   0.0312500
        k(   31) = (   0.3125000   0.3125000   0.3126216), wk =   0.0312500
        k(   32) = (   0.3125000   0.3125000   0.4376702), wk =   0.0312500
        k(   33) = (   0.3125000   0.4375000   0.0625243), wk =   0.0625000
        k(   34) = (   0.3125000   0.4375000   0.1875730), wk =   0.0625000
        k(   35) = (   0.3125000   0.4375000   0.3126216), wk =   0.0625000
        k(   36) = (   0.3125000   0.4375000   0.4376702), wk =   0.0625000
        k(   37) = (   0.4375000   0.4375000   0.0625243), wk =   0.0312500
        k(   38) = (   0.4375000   0.4375000   0.1875730), wk =   0.0312500
        k(   39) = (   0.4375000   0.4375000   0.3126216), wk =   0.0312500
        k(   40) = (   0.4375000   0.4375000   0.4376702), wk =   0.0312500

     Dense  grid:    19381 G-vectors     FFT dimensions: (  36,  36,  36)

     Estimated max dynamical RAM per process >       8.49 MB

     Estimated total dynamical RAM >      67.90 MB

     Check: negative core charge=   -0.000040

     Initial potential from superposition of free atoms

     starting charge      31.9997, renormalised to      32.0000
     Starting wfcs are   32 randomized atomic wfcs

     total cpu time spent up to now is        0.3 secs

     Self-consistent Calculation

     iteration #  1     ecut=    60.00 Ry     beta= 0.30
     Davidson diagonalization with overlap
     ethr =  1.00E-02,  avg # of iterations =  2.5

     total cpu time spent up to now is        0.6 secs

     total energy              =     -99.40570092 Ry
     estimated scf accuracy    <       0.45286052 Ry

     iteration #  2     ecut=    60.00 Ry     beta= 0.30
     Davidson diagonalization with overlap
     ethr =  1.42E-03,  avg # of iterations =  1.0

     total cpu time spent up to now is        0.9 secs

     total energy              =     -99.33289138 Ry
     estimated scf accuracy    <       0.18371090 Ry

     iteration #  3     ecut=    60.00 Ry     beta= 0.30
     Davidson diagonalization with overlap
     ethr =  5.74E-04,  avg # of iterations =  2.1

     total cpu time spent up to now is        1.1 secs

     total energy              =     -99.34965132 Ry
     estimated scf accuracy    <       0.00154002 Ry

     iteration #  4     ecut=    60.00 Ry     beta= 0.30
     Davidson diagonalization with overlap
     c_bands:  2 eigenvalues not converged
     c_bands:  2 eigenvalues not converged
     ethr =  4.81E-06,  avg # of iterations = 12.4

     total cpu time spent up to now is        1.7 secs

     total energy              =     -99.34985557 Ry
     estimated scf accuracy    <       0.00080396 Ry

     iteration #  5     ecut=    60.00 Ry     beta= 0.30
     Davidson diagonalization with overlap
     c_bands:  1 eigenvalues not converged
     ethr =  2.51E-06,  avg # of iterations =  2.4

     total cpu time spent up to now is        2.0 secs

     total energy              =     -99.34992698 Ry
     estimated scf accuracy    <       0.00000255 Ry

     iteration #  6     ecut=    60.00 Ry     beta= 0.30
     Davidson diagonalization with overlap
     ethr =  7.96E-09,  avg # of iterations =  4.3

     total cpu time spent up to now is        2.4 secs

     total energy              =     -99.34993463 Ry
     estimated scf accuracy    <       0.00000960 Ry

     iteration #  7     ecut=    60.00 Ry     beta= 0.30
     Davidson diagonalization with overlap
     ethr =  7.96E-09,  avg # of iterations =  2.0

     total cpu time spent up to now is        2.7 secs

     total energy              =     -99.34993585 Ry
     estimated scf accuracy    <       0.00000005 Ry

     iteration #  8     ecut=    60.00 Ry     beta= 0.30
     Davidson diagonalization with overlap
     ethr =  1.50E-10,  avg # of iterations =  2.3

     total cpu time spent up to now is        2.9 secs

     total energy              =     -99.34993586 Ry
     estimated scf accuracy    <          8.5E-09 Ry

     iteration #  9     ecut=    60.00 Ry     beta= 0.30
     Davidson diagonalization with overlap
     ethr =  2.66E-11,  avg # of iterations =  1.6

     total cpu time spent up to now is        3.2 secs

     total energy              =     -99.34993586 Ry
     estimated scf accuracy    <          9.2E-09 Ry

     iteration # 10     ecut=    60.00 Ry     beta= 0.30
     Davidson diagonalization with overlap
     ethr =  2.66E-11,  avg # of iterations =  1.0

     total cpu time spent up to now is        3.4 secs

     total energy              =     -99.34993586 Ry
     estimated scf accuracy    <          7.5E-09 Ry

     iteration # 11     ecut=    60.00 Ry     beta= 0.30
     Davidson diagonalization with overlap
     ethr =  2.33E-11,  avg # of iterations =  1.0

     total cpu time spent up to now is        3.6 secs

     total energy              =     -99.34993586 Ry
     estimated scf accuracy    <          5.2E-10 Ry

     iteration # 12     ecut=    60.00 Ry     beta= 0.30
     Davidson diagonalization with overlap
     ethr =  1.63E-12,  avg # of iterations =  2.0

     total cpu time spent up to now is        3.9 secs

     total energy              =     -99.34993586 Ry
     estimated scf accuracy    <          6.5E-11 Ry

     iteration # 13     ecut=    60.00 Ry     beta= 0.30
     Davidson diagonalization with overlap
     ethr =  2.03E-13,  avg # of iterations =  2.0

     total cpu time spent up to now is        4.2 secs

     total energy              =     -99.34993586 Ry
     estimated scf accuracy    <          7.7E-12 Ry

     iteration # 14     ecut=    60.00 Ry     beta= 0.30
     Davidson diagonalization with overlap
     ethr =  1.00E-13,  avg # of iterations =  1.1

     total cpu time spent up to now is        4.4 secs

     total energy              =     -99.34993586 Ry
     estimated scf accuracy    <          1.6E-12 Ry

     iteration # 15     ecut=    60.00 Ry     beta= 0.30
     Davidson diagonalization with overlap
     ethr =  1.00E-13,  avg # of iterations =  1.0

     total cpu time spent up to now is        4.6 secs

     End of self-consistent calculation

          k = 0.0625 0.0625 0.0625 (  2436 PWs)   bands (ev):

    -8.0454  -0.4091  -0.4091  -0.4037   1.5622   1.5622   1.5685   6.6358
     6.6411   6.6411   7.0561   7.0618   7.0618  12.5060  13.0442  13.0482
    17.9639  17.9731  17.9732  18.7287

          k = 0.0625 0.0625 0.1876 (  2428 PWs)   bands (ev):

    -7.7586  -2.2217  -0.2086  -0.2086   1.6810   1.6810   3.6170   5.8236
     5.8236   6.8840   6.8840   6.9507   7.3337  11.3906  12.1274  12.6974
    17.7123  18.7458  18.7458  18.8741

          k = 0.0625 0.0625 0.3126 (  2416 PWs)   bands (ev):

    -7.1874  -3.8364   0.1438   0.1438   1.8262   1.8262   5.0202   5.0202
     5.6161   6.3294   6.3294   7.6122   7.8821  10.0783  10.9034  11.6473
    17.6799  18.5297  20.3716  20.3716

          k = 0.0625 0.0625 0.4377 (  2413 PWs)   bands (ev):

    -6.3366  -5.2151   0.4882   0.4882   1.8531   1.8531   4.5896   4.5896
     5.8366   5.8366   7.3531   8.6850   8.7177   8.7552   9.7119  10.2052
    17.8460  18.1546  22.4335  22.4340

          k = 0.0625 0.1875 0.0625 (  2429 PWs)   bands (ev):

    -7.7588  -2.2260  -0.2087  -0.2036   1.6811   1.6867   3.6101   5.8198
     5.8243   6.8791   6.8848   6.9556   7.3392  11.3911  12.1305  12.6938
    17.7217  18.7358  18.7446  18.8795

          k = 0.0625 0.1875 0.1876 (  2413 PWs)   bands (ev):

    -7.4730  -1.9841  -1.9801  -0.0673   1.7169   3.5232   3.5283   4.7943
     6.2427   6.2453   7.2109   7.2154   7.5314  10.1567  11.4667  12.7206
    18.5612  18.6533  18.6634  19.5927

          k = 0.0625 0.1875 0.3126 (  2420 PWs)   bands (ev):

    -6.9039  -3.5743  -1.5201   0.0447   1.7288   3.1816   4.2533   5.0924
     5.5496   6.9077   7.0878   7.5813   7.9750   8.8240  10.3268  12.0766
    18.6912  19.4518  19.5106  20.3687

          k = 0.0625 0.1875 0.4377 (  2420 PWs)   bands (ev):

    -6.0569  -4.9418  -0.8906  -0.2526   1.9728   2.5650   4.3888   4.9179
     6.3455   6.9109   7.2467   7.5457   8.0930   9.1630   9.3043  10.8256
    18.8818  19.1831  21.1537  22.3745

          k = 0.0625 0.3125 0.0625 (  2416 PWs)   bands (ev):

    -7.1880  -3.8395   0.1437   0.1479   1.8266   1.8303   5.0185   5.0213
     5.6099   6.3261   6.3311   7.6157   7.8872  10.0791  10.9069  11.6433
    17.6890  18.5362  20.3603  20.3686

          k = 0.0625 0.3125 0.1876 (  2420 PWs)   bands (ev):

    -6.9043  -3.5772  -1.5167   0.0449   1.7290   3.1837   4.2534   5.0900
     5.5488   6.9063   7.0888   7.5829   7.9775   8.8245  10.3278  12.0750
    18.7009  19.4496  19.5168  20.3576

          k = 0.0625 0.3125 0.3126 (  2416 PWs)   bands (ev):

    -6.3399  -3.0624  -3.0600  -0.5049   1.8597   4.2146   4.2147   4.2215
     6.3119   6.3129   7.5132   8.1755   8.1771   8.4179   9.2684  11.9899
    19.4536  20.4314  20.4419  20.6436

          k = 0.0625 0.3125 0.4377 (  2417 PWs)   bands (ev):

    -5.5014  -4.4011  -2.3209  -1.4141   2.4227   3.2588   4.7036   5.1936
     5.4567   6.2854   7.1716   8.1684   8.4691   8.6504   9.7612  11.1540
    20.4675  20.5971  20.7843  22.2540

          k = 0.0625 0.4375 0.0625 (  2413 PWs)   bands (ev):

    -6.3380  -5.2173   0.4887   0.4907   1.8545   1.8554   4.5900   4.5905
     5.8355   5.8378   7.3502   8.6896   8.7176   8.7554   9.7159  10.2018
    17.8545  18.1621  22.4218  22.4290

          k = 0.0625 0.4375 0.1876 (  2420 PWs)   bands (ev):

    -6.0580  -4.9437  -0.8880  -0.2513   1.9729   2.5652   4.3884   4.9174
     6.3455   6.9126   7.2492   7.5464   8.0944   9.1645   9.3032  10.8234
    18.8907  19.1909  21.1494  22.3645

          k = 0.0625 0.4375 0.3126 (  2413 PWs)   bands (ev):

    -5.5021  -4.4026  -2.3191  -1.4133   2.4224   3.2584   4.7032   5.1942
     5.4559   6.2858   7.1727   8.1691   8.4719   8.6524   9.7586  11.1524
    20.4648  20.6064  20.7915  22.2565

          k = 0.0625 0.4375 0.4377 (  2427 PWs)   bands (ev):

    -4.6792  -3.6078  -3.6070  -2.5892   3.1494   4.0946   4.0950   5.1121
     5.3457   6.2026   6.2032   7.1309   9.6021   9.9252   9.9272  10.8810
    20.6145  21.5896  21.5921  21.6432

          k = 0.1875 0.1875 0.0625 (  2413 PWs)   bands (ev):

    -7.4732  -1.9843  -1.9843  -0.0629   1.7214   3.5236   3.5236   4.7925
     6.2461   6.2461   7.2157   7.2157   7.5256  10.1570  11.4701  12.7169
    18.5521  18.6622  18.6622  19.5948

          k = 0.1875 0.1875 0.1876 (  2415 PWs)   bands (ev):

    -7.1884  -1.7586  -1.7586  -1.7548   3.0857   3.0857   3.0871   5.6590
     5.6590   5.6607   7.7866   7.7922   7.7922   8.8003  12.0273  12.0322
    18.6918  18.7007  18.7007  20.3968

          k = 0.1875 0.1875 0.3126 (  2411 PWs)   bands (ev):

    -6.6216  -3.3184  -1.3506  -1.3506   2.2583   2.2583   4.0833   5.5977
     5.5977   7.2555   7.4184   7.8747   7.8747   8.2991  11.0164  11.7382
    18.9559  19.6346  19.6346  20.1142

          k = 0.1875 0.1875 0.4377 (  2426 PWs)   bands (ev):

    -5.7789  -4.6715  -0.9289  -0.9289   1.5326   1.5326   5.0461   5.7580
     5.7580   6.1508   7.6992   7.6992   9.0410   9.0446   9.9719  10.6409
    19.3143  19.7214  21.2819  21.2819

          k = 0.1875 0.3125 0.0625 (  2420 PWs)   bands (ev):

    -6.9045  -3.5774  -1.5205   0.0472   1.7320   3.1830   4.2549   5.0908
     5.5514   6.9078   7.0905   7.5766   7.9764   8.8251  10.3308  12.0718
    18.6999  19.4414  19.5166  20.3660

          k = 0.1875 0.3125 0.1876 (  2413 PWs)   bands (ev):

    -6.6221  -3.3212  -1.3508  -1.3475   2.2578   2.2592   4.0844   5.5980
     5.6021   7.2507   7.4192   7.8703   7.8757   8.3044  11.0203  11.7337
    18.9643  19.6247  19.6325  20.1195

          k = 0.1875 0.3125 0.3126 (  2419 PWs)   bands (ev):

    -6.0605  -2.8249  -2.8225  -1.1697   1.3142   2.8802   2.8816   5.9348
     6.0215   7.2505   7.2549   8.5318   8.5348   8.6369  10.4542  11.6455
    19.6762  19.9579  19.9669  20.8973

          k = 0.1875 0.3125 0.4377 (  2414 PWs)   bands (ev):

    -5.2277  -4.1386  -2.1388  -1.4356   1.1398   1.8147   3.7115   4.7668
     6.4323   6.9417   8.5248   8.7383   8.8690   9.5172   9.7230  10.9688
    20.3756  20.6609  20.7802  21.4812

          k = 0.1875 0.4375 0.0625 (  2420 PWs)   bands (ev):

    -6.0582  -4.9440  -0.8911  -0.2525   1.9760   2.5676   4.3922   4.9211
     6.3464   6.9094   7.2436   7.5471   8.0971   9.1673   9.3009  10.8206
    18.8899  19.1904  21.1421  22.3696

          k = 0.1875 0.4375 0.1876 (  2426 PWs)   bands (ev):

    -5.7800  -4.6734  -0.9289  -0.9272   1.5326   1.5338   5.0478   5.7595
     5.7617   6.1523   7.6972   7.6997   9.0386   9.0461   9.9762  10.6355
    19.3220  19.7282  21.2716  21.2781

          k = 0.1875 0.4375 0.3126 (  2414 PWs)   bands (ev):

    -5.2283  -4.1400  -2.1372  -1.4350   1.1397   1.8138   3.7128   4.7675
     6.4326   6.9433   8.5239   8.7388   8.8702   9.5177   9.7222  10.9674
    20.3832  20.6586  20.7861  21.4743

          k = 0.1875 0.4375 0.4377 (  2405 PWs)   bands (ev):

    -4.4147  -3.3649  -3.3641  -2.4032   1.6121   2.5311   2.5317   3.5373
     7.1120   7.8374   7.8376   8.6956   9.7316   9.9943   9.9954  10.8330
    20.8063  21.5908  21.5913  21.7186

          k = 0.3125 0.3125 0.0625 (  2416 PWs)   bands (ev):

    -6.3405  -3.0630  -3.0630  -0.5054   1.8633   4.2165   4.2165   4.2257
     6.3160   6.3160   7.5146   8.1735   8.1735   8.4121   9.2722  11.9852
    19.4445  20.4396  20.4396  20.6454

          k = 0.3125 0.3125 0.1876 (  2419 PWs)   bands (ev):

    -6.0609  -2.8252  -2.8252  -1.1679   1.3138   2.8826   2.8826   5.9407
     6.0224   7.2526   7.2526   8.5336   8.5336   8.6312  10.4582  11.6409
    19.6676  19.9652  19.9652  20.8981

          k = 0.3125 0.3125 0.3126 (  2413 PWs)   bands (ev):

    -5.5062  -2.3905  -2.3905  -2.3884   1.5715   1.5732   1.5732   4.5810
     7.8241   7.8241   7.8305   9.0531   9.0585   9.0585  11.0464  11.0524
    20.0757  20.0832  20.0832  21.4211

          k = 0.3125 0.3125 0.4377 (  2409 PWs)   bands (ev):

    -4.6873  -3.6281  -1.9299  -1.9299   0.6517   0.6517   2.2935   3.3177
     8.1154   8.1154   9.3292   9.3292   9.5276   9.6424  10.3380  10.7127
    20.5839  21.0073  21.0073  21.0684

          k = 0.3125 0.4375 0.0625 (  2419 PWs)   bands (ev):

    -5.5027  -4.4032  -2.3219  -1.4154   2.4263   3.2618   4.7084   5.1962
     5.4609   6.2876   7.1763   8.1729   8.4659   8.6458   9.7554  11.1483
    20.4568  20.6047  20.7904  22.2464

          k = 0.3125 0.4375 0.1876 (  2414 PWs)   bands (ev):

    -5.2288  -4.1404  -2.1395  -1.4360   1.1415   1.8165   3.7139   4.7685
     6.4380   6.9461   8.5280   8.7354   8.8645   9.5217   9.7186  10.9633
    20.3821  20.6512  20.7853  21.4780

          k = 0.3125 0.4375 0.3126 (  2409 PWs)   bands (ev):

    -4.6880  -3.6295  -1.9300  -1.9290   0.6513   0.6523   2.2950   3.3186
     8.1179   8.1209   9.3251   9.3278   9.5214   9.6475  10.3427  10.7075
    20.5900  20.9999  21.0060  21.0727

          k = 0.3125 0.4375 0.4377 (  2410 PWs)   bands (ev):

    -3.8998  -2.9186  -2.9179  -2.1858   0.4061   1.1203   1.1209   2.0732
     8.8106   9.2765   9.2785   9.9635   9.9692  10.0992  10.1003  10.7164
    21.1363  21.4092  21.4122  21.6809

          k = 0.4375 0.4375 0.0625 (  2427 PWs)   bands (ev):

    -4.6805  -3.6090  -3.6090  -2.5910   3.1531   4.0980   4.0980   5.1149
     5.3508   6.2077   6.2077   7.1354   9.5962   9.9207   9.9207  10.8755
    20.6052  21.5816  21.5816  21.6339

          k = 0.4375 0.4375 0.1876 (  2402 PWs)   bands (ev):

    -4.4158  -3.3659  -3.3659  -2.4046   1.6146   2.5336   2.5336   3.5392
     7.1178   7.8425   7.8425   8.7005   9.7259   9.9897   9.9897  10.8277
    20.7977  21.5856  21.5866  21.7100

          k = 0.4375 0.4375 0.3126 (  2410 PWs)   bands (ev):

    -3.9004  -2.9191  -2.9191  -2.1863   0.4070   1.1218   1.1218   2.0741
     8.8165   9.2820   9.2820   9.9580   9.9742  10.0953  10.0953  10.7112
    21.1293  21.4122  21.4124  21.6800

          k = 0.4375 0.4375 0.4377 (  2404 PWs)   bands (ev):

    -3.1819  -2.4399  -2.4399  -2.4396   0.1461   0.1465   0.1465   0.8737
    10.0699  10.0699  10.0754  10.2412  10.2464  10.2464  10.5100  10.5168
    21.4776  21.4813  21.4819  21.6840

     the Fermi energy is    15.3190 ev

!    total energy              =     -99.34993586 Ry
     estimated scf accuracy    <          4.4E-13 Ry
     smearing contrib. (-TS)   =      -0.00000003 Ry
     internal energy E=F+TS    =     -99.34993583 Ry

     The total energy is F=E-TS. E is the sum of the following terms:
     one-electron contribution =      32.44425803 Ry
     hartree contribution      =       7.79342641 Ry
     xc contribution           =     -37.47514204 Ry
     ewald contribution        =    -102.11247824 Ry

     convergence has been achieved in  15 iterations

     Forces acting on atoms (cartesian axes, Ry/au):

     atom    1 type  1   force =    -0.00000001    0.00000001   -0.00000005
     atom    2 type  1   force =     0.00000000    0.00000000    0.00000000
     atom    3 type  1   force =    -0.00000001   -0.00000001    0.00000005
     atom    4 type  1   force =     0.00000000    0.00000000    0.00000000
     atom    5 type  1   force =     0.00000001    0.00000001    0.00000005
     atom    6 type  1   force =     0.00000000    0.00000000    0.00000000
     atom    7 type  1   force =     0.00000001   -0.00000001   -0.00000005
     atom    8 type  1   force =     0.00000000    0.00000000    0.00000000
     The non-local contrib.  to forces
     atom    1 type  1   force =    -0.00000007    0.00000007   -0.00000021
     atom    2 type  1   force =     0.00000000    0.00000000    0.00000000
     atom    3 type  1   force =    -0.00000007   -0.00000007    0.00000021
     atom    4 type  1   force =     0.00000000    0.00000000    0.00000000
     atom    5 type  1   force =     0.00000007    0.00000007    0.00000021
     atom    6 type  1   force =     0.00000000    0.00000000    0.00000000
     atom    7 type  1   force =     0.00000007   -0.00000007   -0.00000021
     atom    8 type  1   force =     0.00000000    0.00000000    0.00000000
     The ionic contribution  to forces
     atom    1 type  1   force =    -0.00000000   -0.00000000   -0.00000000
     atom    2 type  1   force =    -0.00000000   -0.00000000    0.00000000
     atom    3 type  1   force =    -0.00000000    0.00000000   -0.00000000
     atom    4 type  1   force =    -0.00000000   -0.00000000    0.00000000
     atom    5 type  1   force =    -0.00000000   -0.00000000   -0.00000000
     atom    6 type  1   force =    -0.00000000   -0.00000000    0.00000000
     atom    7 type  1   force =     0.00000000    0.00000000   -0.00000000
     atom    8 type  1   force =     0.00000000   -0.00000000    0.00000000
     The local contribution  to forces
     atom    1 type  1   force =    -0.00000006    0.00000006   -0.00000031
     atom    2 type  1   force =    -0.00000000    0.00000000    0.00000000
     atom    3 type  1   force =    -0.00000006   -0.00000006    0.00000031
     atom    4 type  1   force =    -0.00000000    0.00000000    0.00000000
     atom    5 type  1   force =     0.00000006    0.00000006    0.00000031
     atom    6 type  1   force =     0.00000000   -0.00000000   -0.00000000
     atom    7 type  1   force =     0.00000006   -0.00000006   -0.00000031
     atom    8 type  1   force =     0.00000000    0.00000000    0.00000000
     The core correction contribution to forces
     atom    1 type  1   force =     0.00000000   -0.00000000    0.00000000
     atom    2 type  1   force =     0.00000000   -0.00000000   -0.00000000
     atom    3 type  1   force =     0.00000000    0.00000000   -0.00000000
     atom    4 type  1   force =     0.00000000   -0.00000000    0.00000000
     atom    5 type  1   force =    -0.00000000   -0.00000000   -0.00000000
     atom    6 type  1   force =     0.00000000    0.00000000    0.00000000
     atom    7 type  1   force =    -0.00000000    0.00000000    0.00000000
     atom    8 type  1   force =    -0.00000000    0.00000000    0.00000000
     The Hubbard contrib.    to forces
     atom    1 type  1   force =     0.00000000    0.00000000    0.00000000
     atom    2 type  1   force =     0.00000000    0.00000000    0.00000000
     atom    3 type  1   force =     0.00000000    0.00000000    0.00000000
     atom    4 type  1   force =     0.00000000    0.00000000    0.00000000
     atom    5 type  1   force =     0.00000000    0.00000000    0.00000000
     atom    6 type  1   force =     0.00000000    0.00000000    0.00000000
     atom    7 type  1   force =     0.00000000    0.00000000    0.00000000
     atom    8 type  1   force =     0.00000000    0.00000000    0.00000000
     The SCF correction term to forces
     atom    1 type  1   force =     0.00000012   -0.00000012    0.00000046
     atom    2 type  1   force =     0.00000000   -0.00000000   -0.00000000
     atom    3 type  1   force =     0.00000012    0.00000012   -0.00000046
     atom    4 type  1   force =    -0.00000000    0.00000000   -0.00000000
     atom    5 type  1   force =    -0.00000012   -0.00000012   -0.00000046
     atom    6 type  1   force =     0.00000000    0.00000000   -0.00000000
     atom    7 type  1   force =    -0.00000012    0.00000012    0.00000046
     atom    8 type  1   force =     0.00000000   -0.00000000   -0.00000000

     Total force =     0.000000     Total SCF correction =     0.000001
     SCF correction compared to forces is large: reduce conv_thr to get better values


     Computing stress (Cartesian axis) and pressure

          total   stress  (Ry/bohr**3)                   (kbar)     P=      -10.32
  -0.00007836   0.00000000   0.00000000          -11.53        0.00        0.00
   0.00000000  -0.00007836   0.00000000            0.00      -11.53        0.00
   0.00000000   0.00000000  -0.00005384            0.00        0.00       -7.92


     BFGS Geometry Optimization
     Energy error            =      0.0E+00 Ry
     Gradient error          =      5.2E-08 Ry/Bohr
     Cell gradient error     =      1.2E+01 kbar

     number of scf cycles    =   1
     number of bfgs steps    =   0

     enthalpy           new  =     -99.3499358569 Ry

     new trust radius        =       0.0068744745 bohr
     new conv_thr            =            1.0E-12 Ry

     new unit-cell volume =    306.26504 a.u.^3 (    45.38380 Ang^3 )
     density =      3.51253 g/cm^3

CELL_PARAMETERS (angstrom)
   3.566709388   0.000000000   0.000000000
   0.000000000   3.566709388   0.000000000
   0.000000000   0.000000000   3.567511455

ATOMIC_POSITIONS (crystal)
C             0.2499999981        0.7500000019        0.2499999923
C             0.0000000000        0.0000000000        0.5000000000
C             0.2499999981        0.2499999981        0.7500000077
C             0.0000000000        0.5000000000        0.0000000000
C             0.7500000019        0.7500000019        0.7500000077
C             0.5000000000        0.0000000000        0.0000000000
C             0.7500000019        0.2499999981        0.2499999923
C             0.5000000000        0.5000000000        0.5000000000



     Writing config-only to output data dir ./C.save/
     NEW-OLD atomic charge density approx. for the potential

     Check: negative core charge=   -0.000039
     extrapolated charge   31.83096, renormalised to   32.00000

     total cpu time spent up to now is        5.1 secs

     Self-consistent Calculation

     iteration #  1     ecut=    60.00 Ry     beta= 0.30
     Davidson diagonalization with overlap
     ethr =  1.00E-06,  avg # of iterations =  2.0

     total cpu time spent up to now is        5.4 secs

     total energy              =     -99.34982021 Ry
     estimated scf accuracy    <       0.00005514 Ry

     iteration #  2     ecut=    60.00 Ry     beta= 0.30
     Davidson diagonalization with overlap
     ethr =  1.72E-07,  avg # of iterations =  2.4

     total cpu time spent up to now is        5.7 secs

     total energy              =     -99.34992586 Ry
     estimated scf accuracy    <       0.00000592 Ry

     iteration #  3     ecut=    60.00 Ry     beta= 0.30
     Davidson diagonalization with overlap
     ethr =  1.85E-08,  avg # of iterations =  1.8

     total cpu time spent up to now is        5.9 secs

     total energy              =     -99.34992467 Ry
     estimated scf accuracy    <       0.00000361 Ry

     iteration #  4     ecut=    60.00 Ry     beta= 0.30
     Davidson diagonalization with overlap
     ethr =  1.13E-08,  avg # of iterations =  2.0

     total cpu time spent up to now is        6.2 secs

     total energy              =     -99.34992508 Ry
     estimated scf accuracy    <       0.00000029 Ry

     iteration #  5     ecut=    60.00 Ry     beta= 0.30
     Davidson diagonalization with overlap
     ethr =  8.98E-10,  avg # of iterations =  1.1

     total cpu time spent up to now is        6.5 secs

     total energy              =     -99.34992503 Ry
     estimated scf accuracy    <       0.00000011 Ry

     iteration #  6     ecut=    60.00 Ry     beta= 0.30
     Davidson diagonalization with overlap
     ethr =  3.40E-10,  avg # of iterations =  2.0

     total cpu time spent up to now is        6.8 secs

     total energy              =     -99.34992504 Ry
     estimated scf accuracy    <          5.2E-09 Ry

     iteration #  7     ecut=    60.00 Ry     beta= 0.30
     Davidson diagonalization with overlap
     ethr =  1.64E-11,  avg # of iterations =  2.1

     total cpu time spent up to now is        7.1 secs

     total energy              =     -99.34992504 Ry
     estimated scf accuracy    <       0.00000001 Ry

     iteration #  8     ecut=    60.00 Ry     beta= 0.30
     Davidson diagonalization with overlap
     ethr =  1.64E-11,  avg # of iterations =  1.0

     total cpu time spent up to now is        7.3 secs

     total energy              =     -99.34992504 Ry
     estimated scf accuracy    <          5.7E-09 Ry

     iteration #  9     ecut=    60.00 Ry     beta= 0.30
     Davidson diagonalization with overlap
     ethr =  1.64E-11,  avg # of iterations =  2.0

     total cpu time spent up to now is        7.6 secs

     total energy              =     -99.34992504 Ry
     estimated scf accuracy    <          3.0E-11 Ry

     iteration # 10     ecut=    60.00 Ry     beta= 0.30
     Davidson diagonalization with overlap
     ethr =  1.00E-13,  avg # of iterations =  2.8

     total cpu time spent up to now is        7.9 secs

     End of self-consistent calculation

          k = 0.0626 0.0626 0.0626 (  2436 PWs)   bands (ev):

    -8.0208  -0.3553  -0.3522  -0.3522   1.6240   1.6277   1.6277   6.6994
     6.6994   6.7024   7.1221   7.1221   7.1254  12.5977  13.1387  13.1410
    18.0749  18.0750  18.0803  18.8436

          k = 0.0626 0.0626 0.1878 (  2428 PWs)   bands (ev):

    -7.7332  -2.1795  -0.1504  -0.1504   1.7477   1.7477   3.6803   5.8783
     5.8783   6.9441   6.9441   7.0183   7.4042  11.4783  12.2187  12.7871
    17.8296  18.8493  18.8493  18.9905

          k = 0.0626 0.0626 0.3130 (  2416 PWs)   bands (ev):

    -7.1603  -3.7993   0.2047   0.2047   1.8943   1.8943   5.0711   5.0711
     5.6874   6.3872   6.3872   7.6820   7.9546  10.1616  10.9887  11.7343
    17.7975  18.6469  20.4796  20.4796

          k = 0.0626 0.0626 0.4383 (  2413 PWs)   bands (ev):

    -6.3071  -5.1823   0.5527   0.5527   1.9205   1.9205   4.6394   4.6394
     5.8914   5.8914   7.4300   8.7607   8.7923   8.8349   9.7918  10.2870
    17.9638  18.2722  22.5456  22.5459

          k = 0.0626 0.1879 0.0626 (  2429 PWs)   bands (ev):

    -7.7330  -2.1770  -0.1533  -0.1503   1.7444   1.7477   3.6843   5.8780
     5.8806   6.9437   6.9470   7.0155   7.4010  11.4780  12.2170  12.7892
    17.8241  18.8500  18.8551  18.9874

          k = 0.0626 0.1879 0.1878 (  2413 PWs)   bands (ev):

    -7.4464  -1.9364  -1.9340  -0.0072   1.7831   3.5941   3.5971   4.8432
     6.3033   6.3048   7.2767   7.2793   7.5940  10.2398  11.5539  12.8110
    18.6644  18.7681  18.7739  19.7070

          k = 0.0626 0.1879 0.3130 (  2420 PWs)   bands (ev):

    -6.8756  -3.5359  -1.4677   0.1076   1.7912   3.2522   4.3020   5.1640
     5.6076   6.9677   7.1553   7.6454   8.0445   8.9034  10.4095  12.1636
    18.8127  19.5564  19.6314  20.4784

          k = 0.0626 0.1879 0.4383 (  2420 PWs)   bands (ev):

    -6.0262  -4.9077  -0.8343  -0.1914   2.0333   2.6297   4.4422   4.9753
     6.4194   6.9719   7.3099   7.6218   8.1667   9.2412   9.3788  10.9072
    19.0037  19.3049  21.2620  22.4860

          k = 0.0626 0.3131 0.0626 (  2416 PWs)   bands (ev):

    -7.1599  -3.7975   0.2023   0.2048   1.8918   1.8940   5.0705   5.0721
     5.6910   6.3863   6.3892   7.6799   7.9516  10.1611  10.9867  11.7366
    17.7923  18.6431  20.4813  20.4861

          k = 0.0626 0.3131 0.1878 (  2420 PWs)   bands (ev):

    -6.8754  -3.5342  -1.4697   0.1075   1.7911   3.2510   4.3019   5.1654
     5.6080   6.9685   7.1547   7.6445   8.0431   8.9031  10.4090  12.1645
    18.8071  19.5576  19.6278  20.4848

          k = 0.0626 0.3131 0.3130 (  2416 PWs)   bands (ev):

    -6.3093  -3.0187  -3.0173  -0.4455   1.9177   4.2751   4.2833   4.2834
     6.3777   6.3783   7.5882   8.2431   8.2440   8.4849   9.3465  12.0763
    19.5601  20.5538  20.5599  20.7627

          k = 0.0626 0.3131 0.4383 (  2417 PWs)   bands (ev):

    -5.4683  -4.3644  -2.2725  -1.3609   2.4824   3.3223   4.7620   5.2634
     5.5188   6.3573   7.2423   8.2428   8.5392   8.7203   9.8350  11.2352
    20.5758  20.7258  20.9115  22.3846

          k = 0.0626 0.4384 0.0626 (  2413 PWs)   bands (ev):

    -6.3064  -5.1810   0.5512   0.5524   1.9192   1.9197   4.6388   4.6391
     5.8907   5.8920   7.4317   8.7580   8.7925   8.8348   9.7895  10.2890
    17.9589  18.2678  22.5483  22.5525

          k = 0.0626 0.4384 0.1878 (  2420 PWs)   bands (ev):

    -6.0256  -4.9066  -0.8358  -0.1922   2.0333   2.6295   4.4424   4.9756
     6.4194   6.9709   7.3084   7.6214   8.1658   9.2403   9.3795  10.9085
    18.9985  19.3004  21.2645  22.4919

          k = 0.0626 0.4384 0.3130 (  2413 PWs)   bands (ev):

    -5.4679  -4.3635  -2.2735  -1.3614   2.4826   3.3226   4.7623   5.2630
     5.5193   6.3571   7.2417   8.2424   8.5376   8.7192   9.8365  11.2362
    20.5774  20.7204  20.9073  22.3831

          k = 0.0626 0.4384 0.4383 (  2427 PWs)   bands (ev):

    -4.6424  -3.5664  -3.5659  -2.5431   3.2114   4.1599   4.1602   5.1801
     5.4085   6.2692   6.2695   7.2010   9.6752  10.0009  10.0021  10.9611
    20.7273  21.7079  21.7094  21.7661

          k = 0.1879 0.1879 0.0626 (  2413 PWs)   bands (ev):

    -7.4463  -1.9339  -1.9339  -0.0098   1.7805   3.5969   3.5969   4.8443
     6.3028   6.3028   7.2765   7.2765   7.5974  10.2396  11.5520  12.8132
    18.6697  18.7687  18.7687  19.7058

          k = 0.1879 0.1879 0.1878 (  2415 PWs)   bands (ev):

    -7.1607  -1.7092  -1.7070  -1.7070   3.1522   3.1530   3.1530   5.7164
     5.7174   5.7174   7.8562   7.8562   7.8594   8.8779  12.1166  12.1194
    18.8053  18.8053  18.8105  20.5157

          k = 0.1879 0.1879 0.3130 (  2411 PWs)   bands (ev):

    -6.5922  -3.2785  -1.2961  -1.2961   2.3163   2.3163   4.1495   5.6614
     5.6614   7.3203   7.4920   7.9398   7.9398   8.3739  11.1032  11.8221
    19.0762  19.7407  19.7407  20.2368

          k = 0.1879 0.1879 0.4383 (  2426 PWs)   bands (ev):

    -5.7470  -4.6360  -0.8701  -0.8701   1.5830   1.5830   5.1137   5.8254
     5.8254   6.2210   7.7636   7.7636   9.1182   9.1189  10.0538  10.7212
    19.4361  19.8443  21.3907  21.3907

          k = 0.1879 0.3131 0.0626 (  2420 PWs)   bands (ev):

    -6.8752  -3.5341  -1.4674   0.1061   1.7894   3.2514   4.3010   5.1650
     5.6065   6.9677   7.1537   7.6481   8.0437   8.9028  10.4072  12.1663
    18.8077  19.5624  19.6279  20.4800

          k = 0.1879 0.3131 0.1878 (  2413 PWs)   bands (ev):

    -6.5919  -3.2768  -1.2979  -1.2960   2.3158   2.3166   4.1489   5.6588
     5.6612   7.3231   7.4915   7.9393   7.9424   8.3709  11.1010  11.8247
    19.0714  19.7419  19.7464  20.2336

          k = 0.1879 0.3131 0.3130 (  2419 PWs)   bands (ev):

    -6.0287  -2.7795  -2.7781  -1.1117   1.3616   2.9391   2.9399   6.0024
     6.0897   7.3227   7.3253   8.6029   8.6046   8.7051  10.5375  11.7301
    19.7840  20.0758  20.0810  21.0162

          k = 0.1879 0.3131 0.4383 (  2414 PWs)   bands (ev):

    -5.1932  -4.1005  -2.0881  -1.3792   1.1861   1.8663   3.7732   4.8313
     6.5029   7.0150   8.6008   8.8084   8.9395   9.5975   9.7985  11.0496
    20.5001  20.7703  20.9050  21.5908

          k = 0.1879 0.4384 0.0626 (  2420 PWs)   bands (ev):

    -6.0254  -4.9065  -0.8340  -0.1915   2.0315   2.6281   4.4402   4.9734
     6.4189   6.9727   7.3117   7.6210   8.1643   9.2387   9.3809  10.9101
    18.9990  19.3007  21.2687  22.4889

          k = 0.1879 0.4384 0.1878 (  2426 PWs)   bands (ev):

    -5.7463  -4.6349  -0.8711  -0.8702   1.5823   1.5830   5.1128   5.8232
     5.8245   6.2202   7.7633   7.7648   9.1160   9.1217  10.0513  10.7243
    19.4317  19.8403  21.3930  21.3967

          k = 0.1879 0.4384 0.3130 (  2414 PWs)   bands (ev):

    -5.1928  -4.0996  -2.0890  -1.3796   1.1862   1.8668   3.7725   4.8309
     6.5027   7.0141   8.6013   8.8081   8.9388   9.5972   9.7990  11.0505
    20.4957  20.7717  20.9016  21.5948

          k = 0.1879 0.4384 0.4383 (  2405 PWs)   bands (ev):

    -4.3764  -3.3217  -3.3213  -2.3547   1.6628   2.5868   2.5871   3.5968
     7.1848   7.9125   7.9126   8.7732   9.8056  10.0704  10.0711  10.9131
    20.9202  21.7052  21.7062  21.8416

          k = 0.3131 0.3131 0.0626 (  2416 PWs)   bands (ev):

    -6.3089  -3.0170  -3.0170  -0.4452   1.9156   4.2726   4.2823   4.2823
     6.3759   6.3759   7.5873   8.2451   8.2451   8.4884   9.3442  12.0790
    19.5654  20.5551  20.5551  20.7617

          k = 0.3131 0.3131 0.1878 (  2419 PWs)   bands (ev):

    -6.0284  -2.7779  -2.7779  -1.1127   1.3618   2.9385   2.9385   5.9990
     6.0891   7.3241   7.3241   8.6035   8.6035   8.7084  10.5352  11.7327
    19.7890  20.0768  20.0768  21.0158

          k = 0.3131 0.3131 0.3130 (  2413 PWs)   bands (ev):

    -5.4719  -2.3414  -2.3402  -2.3402   1.6218   1.6218   1.6228   4.6431
     7.8975   7.9013   7.9013   9.1290   9.1290   9.1321  11.1314  11.1349
    20.1937  20.1937  20.1981  21.5411

          k = 0.3131 0.3131 0.4383 (  2409 PWs)   bands (ev):

    -4.6502  -3.5869  -1.8749  -1.8749   0.6937   0.6937   2.3481   3.3758
     8.1945   8.1945   9.4009   9.4009   9.6015   9.7241  10.4229  10.7909
    20.7076  21.1190  21.1190  21.1922

          k = 0.3131 0.4384 0.0626 (  2419 PWs)   bands (ev):

    -5.4675  -4.3632  -2.2719  -1.3602   2.4803   3.3206   4.7593   5.2619
     5.5163   6.3560   7.2396   8.2402   8.5411   8.7230   9.8383  11.2386
    20.5820  20.7215  20.9079  22.3895

          k = 0.3131 0.4384 0.1878 (  2414 PWs)   bands (ev):

    -5.1926  -4.0994  -2.0877  -1.3790   1.1851   1.8652   3.7719   4.8303
     6.4996   7.0125   8.5990   8.8101   8.9421   9.5949   9.8011  11.0528
    20.4964  20.7759  20.9021  21.5927

          k = 0.3131 0.4384 0.3130 (  2409 PWs)   bands (ev):

    -4.6498  -3.5861  -1.8754  -1.8748   0.6934   0.6939   2.3472   3.3753
     8.1913   8.1931   9.4017   9.4032   9.6051   9.7211  10.4202  10.7940
    20.7040  21.1198  21.1233  21.1898

          k = 0.3131 0.4384 0.4383 (  2410 PWs)   bands (ev):

    -3.8585  -2.8715  -2.8711  -2.1323   0.4468   1.1676   1.1679   2.1254
     8.8902   9.3572   9.3584  10.0389  10.0514  10.1764  10.1770  10.7961
    21.2521  21.5270  21.5287  21.7999

          k = 0.4384 0.4384 0.0626 (  2427 PWs)   bands (ev):

    -4.6416  -3.5652  -3.5652  -2.5421   3.2092   4.1582   4.1582   5.1785
     5.4055   6.2666   6.2666   7.1983   9.6786  10.0046  10.0046  10.9643
    20.7328  21.7140  21.7140  21.7715

          k = 0.4384 0.4384 0.1878 (  2402 PWs)   bands (ev):

    -4.3758  -3.3207  -3.3207  -2.3538   1.6614   2.5856   2.5856   3.5956
     7.1815   7.9096   7.9096   8.7704   9.8089  10.0738  10.0738  10.9162
    20.9252  21.7083  21.7089  21.8466

          k = 0.4384 0.4384 0.3130 (  2410 PWs)   bands (ev):

    -3.8581  -2.8708  -2.8708  -2.1320   0.4463   1.1671   1.1671   2.1249
     8.8868   9.3552   9.3552  10.0421  10.0485  10.1793  10.1793  10.7991
    21.2561  21.5271  21.5272  21.8002

          k = 0.4384 0.4384 0.4383 (  2404 PWs)   bands (ev):

    -3.1355  -2.3869  -2.3867  -2.3867   0.1850   0.1850   0.1852   0.9188
    10.1502  10.1533  10.1533  10.3236  10.3236  10.3266  10.5929  10.5969
    21.5983  21.5987  21.6008  21.8020

     the Fermi energy is    15.4199 ev

!    total energy              =     -99.34992504 Ry
     estimated scf accuracy    <          9.0E-13 Ry
     smearing contrib. (-TS)   =      -0.00000003 Ry
     internal energy E=F+TS    =     -99.34992502 Ry

     The total energy is F=E-TS. E is the sum of the following terms:
     one-electron contribution =      32.68111301 Ry
     hartree contribution      =       7.77178480 Ry
     xc contribution           =     -37.51085710 Ry
     ewald contribution        =    -102.29196573 Ry

     convergence has been achieved in  10 iterations

     Forces acting on atoms (cartesian axes, Ry/au):

     atom    1 type  1   force =     0.00000002   -0.00000002    0.00000007
     atom    2 type  1   force =     0.00000000    0.00000000    0.00000000
     atom    3 type  1   force =     0.00000002    0.00000002   -0.00000007
     atom    4 type  1   force =     0.00000000    0.00000000    0.00000000
     atom    5 type  1   force =    -0.00000002   -0.00000002   -0.00000007
     atom    6 type  1   force =     0.00000000    0.00000000    0.00000000
     atom    7 type  1   force =    -0.00000002    0.00000002    0.00000007
     atom    8 type  1   force =     0.00000000    0.00000000    0.00000000
     The non-local contrib.  to forces
     atom    1 type  1   force =     0.00000002   -0.00000002    0.00000005
     atom    2 type  1   force =     0.00000000    0.00000000    0.00000000
     atom    3 type  1   force =     0.00000002    0.00000002   -0.00000005
     atom    4 type  1   force =     0.00000000    0.00000000    0.00000000
     atom    5 type  1   force =    -0.00000002   -0.00000002   -0.00000005
     atom    6 type  1   force =     0.00000000    0.00000000    0.00000000
     atom    7 type  1   force =    -0.00000002    0.00000002    0.00000005
     atom    8 type  1   force =     0.00000000    0.00000000    0.00000000
     The ionic contribution  to forces
     atom    1 type  1   force =     0.00000007   -0.00000007    0.00000027
     atom    2 type  1   force =    -0.00000000    0.00000000    0.00000000
     atom    3 type  1   force =     0.00000007    0.00000007   -0.00000027
     atom    4 type  1   force =    -0.00000000    0.00000000    0.00000000
     atom    5 type  1   force =    -0.00000007   -0.00000007   -0.00000027
     atom    6 type  1   force =     0.00000000    0.00000000   -0.00000000
     atom    7 type  1   force =    -0.00000007    0.00000007    0.00000027
     atom    8 type  1   force =     0.00000000    0.00000000    0.00000000
     The local contribution  to forces
     atom    1 type  1   force =    -0.00000004    0.00000004   -0.00000027
     atom    2 type  1   force =    -0.00000000    0.00000000    0.00000000
     atom    3 type  1   force =    -0.00000004   -0.00000004    0.00000027
     atom    4 type  1   force =    -0.00000000    0.00000000   -0.00000000
     atom    5 type  1   force =     0.00000004    0.00000004    0.00000027
     atom    6 type  1   force =     0.00000000   -0.00000000    0.00000000
     atom    7 type  1   force =     0.00000004   -0.00000004   -0.00000027
     atom    8 type  1   force =     0.00000000    0.00000000    0.00000000
     The core correction contribution to forces
     atom    1 type  1   force =    -0.00000000    0.00000000   -0.00000000
     atom    2 type  1   force =     0.00000000   -0.00000000   -0.00000000
     atom    3 type  1   force =    -0.00000000   -0.00000000    0.00000000
     atom    4 type  1   force =    -0.00000000   -0.00000000   -0.00000000
     atom    5 type  1   force =     0.00000000    0.00000000    0.00000000
     atom    6 type  1   force =    -0.00000000    0.00000000   -0.00000000
     atom    7 type  1   force =     0.00000000   -0.00000000   -0.00000000
     atom    8 type  1   force =    -0.00000000   -0.00000000   -0.00000000
     The Hubbard contrib.    to forces
     atom    1 type  1   force =     0.00000000    0.00000000    0.00000000
     atom    2 type  1   force =     0.00000000    0.00000000    0.00000000
     atom    3 type  1   force =     0.00000000    0.00000000    0.00000000
     atom    4 type  1   force =     0.00000000    0.00000000    0.00000000
     atom    5 type  1   force =     0.00000000    0.00000000    0.00000000
     atom    6 type  1   force =     0.00000000    0.00000000    0.00000000
     atom    7 type  1   force =     0.00000000    0.00000000    0.00000000
     atom    8 type  1   force =     0.00000000    0.00000000    0.00000000
     The SCF correction term to forces
     atom    1 type  1   force =    -0.00000003    0.00000003    0.00000002
     atom    2 type  1   force =    -0.00000000    0.00000000    0.00000000
     atom    3 type  1   force =    -0.00000003   -0.00000003   -0.00000002
     atom    4 type  1   force =     0.00000000    0.00000000   -0.00000000
     atom    5 type  1   force =     0.00000003    0.00000003   -0.00000002
     atom    6 type  1   force =    -0.00000000   -0.00000000    0.00000000
     atom    7 type  1   force =     0.00000003   -0.00000003    0.00000002
     atom    8 type  1   force =    -0.00000000   -0.00000000   -0.00000000

     Total force =     0.000000     Total SCF correction =     0.000000
     SCF correction compared to forces is large: reduce conv_thr to get better values


     Computing stress (Cartesian axis) and pressure

          total   stress  (Ry/bohr**3)                   (kbar)     P=       12.51
   0.00008977   0.00000000   0.00000000           13.21        0.00        0.00
   0.00000000   0.00008977   0.00000000            0.00       13.21        0.00
   0.00000000   0.00000000   0.00007548            0.00        0.00       11.10

     Energy error            =      1.1E-05 Ry
     Gradient error          =      6.7E-08 Ry/Bohr
     Cell gradient error     =      1.3E+01 kbar

     number of scf cycles    =   2
     number of bfgs steps    =   1

     enthalpy           old  =     -99.3499358569 Ry
     enthalpy           new  =     -99.3499250417 Ry

     CASE: enthalpy          _new > enthalpy          _old

     new trust radius        =       0.0031438873 bohr
     new conv_thr            =            1.0E-12 Ry

     new unit-cell volume =    307.14182 a.u.^3 (    45.51372 Ang^3 )
     density =      3.50250 g/cm^3

CELL_PARAMETERS (angstrom)
   3.570506269   0.000000000   0.000000000
   0.000000000   3.570506269   0.000000000
   0.000000000   0.000000000   3.570119438

ATOMIC_POSITIONS (crystal)
C             0.2499999991        0.7500000009        0.2499999965
C             0.0000000000        0.0000000000        0.5000000000
C             0.2499999991        0.2499999991        0.7500000035
C             0.0000000000        0.5000000000        0.0000000000
C             0.7500000009        0.7500000009        0.7500000035
C             0.5000000000        0.0000000000        0.0000000000
C             0.7500000009        0.2499999991        0.2499999965
C             0.5000000000        0.5000000000        0.5000000000



     Writing config-only to output data dir ./C.save/
     NEW-OLD atomic charge density approx. for the potential

     Check: negative core charge=   -0.000040
     extrapolated charge   32.09135, renormalised to   32.00000

     total cpu time spent up to now is        8.3 secs

     Self-consistent Calculation

     iteration #  1     ecut=    60.00 Ry     beta= 0.30
     Davidson diagonalization with overlap
     ethr =  1.00E-06,  avg # of iterations =  2.0

     Threshold (ethr) on eigenvalues was too large:
     Diagonalizing with lowered threshold

     Davidson diagonalization with overlap
     ethr =  4.94E-08,  avg # of iterations =  1.0

     total cpu time spent up to now is        8.9 secs

     total energy              =     -99.34993179 Ry
     estimated scf accuracy    <       0.00001589 Ry

     iteration #  2     ecut=    60.00 Ry     beta= 0.30
     Davidson diagonalization with overlap
     ethr =  4.97E-08,  avg # of iterations =  2.5

     total cpu time spent up to now is        9.2 secs

     total energy              =     -99.34996292 Ry
     estimated scf accuracy    <       0.00000182 Ry

     iteration #  3     ecut=    60.00 Ry     beta= 0.30
     Davidson diagonalization with overlap
     ethr =  5.70E-09,  avg # of iterations =  1.9

     total cpu time spent up to now is        9.4 secs

     total energy              =     -99.34996255 Ry
     estimated scf accuracy    <       0.00000111 Ry

     iteration #  4     ecut=    60.00 Ry     beta= 0.30
     Davidson diagonalization with overlap
     ethr =  3.47E-09,  avg # of iterations =  2.0

     total cpu time spent up to now is        9.7 secs

     total energy              =     -99.34996267 Ry
     estimated scf accuracy    <       0.00000010 Ry

     iteration #  5     ecut=    60.00 Ry     beta= 0.30
     Davidson diagonalization with overlap
     ethr =  3.14E-10,  avg # of iterations =  1.1

     total cpu time spent up to now is        9.9 secs

     total energy              =     -99.34996266 Ry
     estimated scf accuracy    <       0.00000003 Ry

     iteration #  6     ecut=    60.00 Ry     beta= 0.30
     Davidson diagonalization with overlap
     ethr =  1.03E-10,  avg # of iterations =  2.0

     total cpu time spent up to now is       10.2 secs

     total energy              =     -99.34996266 Ry
     estimated scf accuracy    <          4.2E-09 Ry

     iteration #  7     ecut=    60.00 Ry     beta= 0.30
     Davidson diagonalization with overlap
     ethr =  1.32E-11,  avg # of iterations =  2.0

     total cpu time spent up to now is       10.6 secs

     total energy              =     -99.34996266 Ry
     estimated scf accuracy    <          3.8E-09 Ry

     iteration #  8     ecut=    60.00 Ry     beta= 0.30
     Davidson diagonalization with overlap
     ethr =  1.20E-11,  avg # of iterations =  1.0

     total cpu time spent up to now is       10.8 secs

     total energy              =     -99.34996266 Ry
     estimated scf accuracy    <          2.5E-09 Ry

     iteration #  9     ecut=    60.00 Ry     beta= 0.30
     Davidson diagonalization with overlap
     ethr =  7.76E-12,  avg # of iterations =  2.0

     total cpu time spent up to now is       11.0 secs

     total energy              =     -99.34996266 Ry
     estimated scf accuracy    <          3.4E-12 Ry

     iteration # 10     ecut=    60.00 Ry     beta= 0.30
     Davidson diagonalization with overlap
     ethr =  1.00E-13,  avg # of iterations =  2.5

     total cpu time spent up to now is       11.3 secs

     End of self-consistent calculation

          k = 0.0626 0.0626 0.0626 (  2436 PWs)   bands (ev):

    -8.0341  -0.3831  -0.3831  -0.3816   1.5921   1.5921   1.5939   6.6662
     6.6677   6.6677   7.0878   7.0894   7.0894  12.5479  13.0885  13.0896
    18.0171  18.0197  18.0197  18.7812

          k = 0.0626 0.0626 0.1877 (  2428 PWs)   bands (ev):

    -7.7470  -2.2024  -0.1820  -0.1820   1.7115   1.7115   3.6459   5.8486
     5.8486   6.9115   6.9115   6.9816   7.3659  11.4307  12.1691  12.7384
    17.7659  18.7931  18.7931  18.9273

          k = 0.0626 0.0626 0.3128 (  2416 PWs)   bands (ev):

    -7.1750  -3.8194   0.1716   0.1716   1.8573   1.8573   5.0435   5.0435
     5.6487   6.3559   6.3559   7.6441   7.9152  10.1164  10.9424  11.6870
    17.7336  18.5833  20.4209  20.4209

          k = 0.0626 0.0626 0.4379 (  2413 PWs)   bands (ev):

    -6.3232  -5.2001   0.5177   0.5177   1.8839   1.8839   4.6123   4.6123
     5.8616   5.8616   7.3882   8.7196   8.7518   8.7916   9.7484  10.2426
    17.8998  18.2083  22.4848  22.4849

          k = 0.0626 0.1877 0.0626 (  2429 PWs)   bands (ev):

    -7.7471  -2.2036  -0.1820  -0.1806   1.7115   1.7131   3.6440   5.8476
     5.8488   6.9101   6.9117   6.9829   7.3674  11.4308  12.1700  12.7374
    17.7685  18.7903  18.7928  18.9288

          k = 0.0626 0.1877 0.1877 (  2413 PWs)   bands (ev):

    -7.4608  -1.9612  -1.9601  -0.0398   1.7472   3.5570   3.5584   4.8167
     6.2711   6.2718   7.2421   7.2434   7.5600  10.1947  11.5066  12.7619
    18.6084  18.7084  18.7112  19.6449

          k = 0.0626 0.1877 0.3128 (  2420 PWs)   bands (ev):

    -6.8910  -3.5567  -1.4961   0.0734   1.7573   3.2139   4.2755   5.1251
     5.5761   6.9351   7.1186   7.6106   8.0068   8.8603  10.3646  12.1163
    18.7467  19.4996  19.5658  20.4188

          k = 0.0626 0.1877 0.4379 (  2420 PWs)   bands (ev):

    -6.0429  -4.9262  -0.8648  -0.2247   2.0005   2.5945   4.4132   4.9441
     6.3793   6.9388   7.2756   7.5805   8.1266   9.1987   9.3384  10.8629
    18.9375  19.2388  21.2032  22.4255

          k = 0.0626 0.3128 0.0626 (  2416 PWs)   bands (ev):

    -7.1752  -3.8203   0.1716   0.1728   1.8574   1.8584   5.0430   5.0438
     5.6470   6.3549   6.3563   7.6451   7.9166  10.1166  10.9434  11.6859
    17.7362  18.5851  20.4178  20.4201

          k = 0.0626 0.3128 0.1877 (  2420 PWs)   bands (ev):

    -6.8911  -3.5575  -1.4952   0.0735   1.7574   3.2144   4.2756   5.1245
     5.5759   6.9347   7.1189   7.6110   8.0075   8.8604  10.3649  12.1159
    18.7494  19.4990  19.5675  20.4157

          k = 0.0626 0.3128 0.3128 (  2416 PWs)   bands (ev):

    -6.3259  -3.0418  -3.0411  -0.4778   1.8862   4.2459   4.2460   4.2461
     6.3422   6.3425   7.5475   8.2068   8.2072   8.4486   9.3041  12.0294
    19.5023  20.4901  20.4930  20.6981

          k = 0.0626 0.3128 0.4379 (  2417 PWs)   bands (ev):

    -5.4863  -4.3843  -2.2988  -1.3898   2.4500   3.2878   4.7303   5.2255
     5.4851   6.3183   7.2039   8.2024   8.5011   8.6823   9.7949  11.1911
    20.5170  20.6559  20.8424  22.3130

          k = 0.0626 0.4379 0.0626 (  2413 PWs)   bands (ev):

    -6.3235  -5.2007   0.5178   0.5184   1.8843   1.8846   4.6124   4.6126
     5.8613   5.8620   7.3874   8.7209   8.7517   8.7917   9.7495  10.2416
    17.9022  18.2104  22.4815  22.4835

          k = 0.0626 0.4379 0.1877 (  2420 PWs)   bands (ev):

    -6.0432  -4.9268  -0.8641  -0.2243   2.0005   2.5946   4.4131   4.9440
     6.3793   6.9393   7.2763   7.5807   8.1270   9.1992   9.3381  10.8623
    18.9400  19.2409  21.2020  22.4227

          k = 0.0626 0.4379 0.3128 (  2413 PWs)   bands (ev):

    -5.4864  -4.3847  -2.2983  -1.3896   2.4499   3.2877   4.7302   5.2257
     5.4848   6.3184   7.2042   8.2026   8.5019   8.6829   9.7942  11.1907
    20.5163  20.6585  20.8444  22.3138

          k = 0.0626 0.4379 0.4379 (  2427 PWs)   bands (ev):

    -4.6624  -3.5887  -3.5884  -2.5682   3.1777   4.1246   4.1247   5.1432
     5.3744   6.2332   6.2334   7.1629   9.6355   9.9603   9.9609  10.9176
    20.6661  21.6443  21.6450  21.6994

          k = 0.1877 0.1877 0.0626 (  2413 PWs)   bands (ev):

    -7.4609  -1.9613  -1.9613  -0.0386   1.7484   3.5571   3.5571   4.8162
     6.2720   6.2720   7.2435   7.2435   7.5584  10.1948  11.5075  12.7609
    18.6058  18.7109  18.7109  19.6455

          k = 0.1877 0.1877 0.1877 (  2415 PWs)   bands (ev):

    -7.1757  -1.7350  -1.7350  -1.7340   3.1165   3.1165   3.1169   5.6857
     5.6857   5.6862   7.8199   7.8214   7.8214   8.8357  12.0694  12.0707
    18.7461  18.7485  18.7485  20.4511

          k = 0.1877 0.1877 0.3128 (  2411 PWs)   bands (ev):

    -6.6082  -3.3001  -1.3257  -1.3257   2.2848   2.2848   4.1136   5.6268
     5.6268   7.2851   7.4521   7.9045   7.9045   8.3333  11.0561  11.7766
    19.0109  19.6831  19.6831  20.1702

          k = 0.1877 0.1877 0.4379 (  2426 PWs)   bands (ev):

    -5.7643  -4.6553  -0.9021  -0.9021   1.5556   1.5556   5.0770   5.7888
     5.7888   6.1829   7.7286   7.7286   9.0766   9.0783  10.0093  10.6776
    19.3700  19.7776  21.3316  21.3316

          k = 0.1877 0.3128 0.0626 (  2420 PWs)   bands (ev):

    -6.8912  -3.5576  -1.4962   0.0741   1.7582   3.2143   4.2760   5.1247
     5.5766   6.9351   7.1194   7.6093   8.0071   8.8606  10.3657  12.1150
    18.7492  19.4967  19.5675  20.4181

          k = 0.1877 0.3128 0.1877 (  2413 PWs)   bands (ev):

    -6.6083  -3.3009  -1.3258  -1.3248   2.2847   2.2851   4.1139   5.6269
     5.6280   7.2838   7.4522   7.9032   7.9047   8.3347  11.0571  11.7753
    19.0133  19.6803  19.6825  20.1717

          k = 0.1877 0.3128 0.3128 (  2419 PWs)   bands (ev):

    -6.0460  -2.8035  -2.8028  -1.1432   1.3359   2.9075   2.9079   5.9657
     6.0527   7.2846   7.2859   8.5651   8.5659   8.6680  10.4923  11.6842
    19.7255  20.0142  20.0167  20.9517

          k = 0.1877 0.3128 0.4379 (  2414 PWs)   bands (ev):

    -5.2119  -4.1212  -2.1156  -1.4098   1.1610   1.8382   3.7397   4.7963
     6.4645   6.9752   8.5595   8.7703   8.9012   9.5539   9.7575  11.0057
    20.4325  20.7109  20.8373  21.5313

          k = 0.1877 0.4379 0.0626 (  2420 PWs)   bands (ev):

    -6.0433  -4.9268  -0.8650  -0.2246   2.0014   2.5953   4.4141   4.9450
     6.3795   6.9384   7.2747   7.5809   8.1278   9.1999   9.3374  10.8615
    18.9398  19.2408  21.2000  22.4241

          k = 0.1877 0.4379 0.1877 (  2426 PWs)   bands (ev):

    -5.7646  -4.6558  -0.9021  -0.9016   1.5556   1.5560   5.0775   5.7892
     5.7898   6.1833   7.7281   7.7288   9.0765   9.0781  10.0105  10.6761
    19.3721  19.7795  21.3288  21.3306

          k = 0.1877 0.4379 0.3128 (  2414 PWs)   bands (ev):

    -5.2121  -4.1216  -2.1152  -1.4097   1.1610   1.8380   3.7401   4.7965
     6.4646   6.9757   8.5593   8.7705   8.9015   9.5540   9.7573  11.0053
    20.4346  20.7103  20.8389  21.5294

          k = 0.1877 0.4379 0.4379 (  2405 PWs)   bands (ev):

    -4.3972  -3.3450  -3.3448  -2.3810   1.6353   2.5567   2.5568   3.5645
     7.1453   7.8717   7.8718   8.7310   9.7654  10.0294  10.0297  10.8696
    20.8584  21.6432  21.6433  21.7748

          k = 0.3128 0.3128 0.0626 (  2416 PWs)   bands (ev):

    -6.3261  -3.0420  -3.0420  -0.4779   1.8872   4.2466   4.2466   4.2471
     6.3434   6.3434   7.5479   8.2062   8.2062   8.4469   9.3051  12.0281
    19.4997  20.4924  20.4924  20.6986

          k = 0.3128 0.3128 0.1877 (  2419 PWs)   bands (ev):

    -6.0461  -2.8036  -2.8036  -1.1427   1.3358   2.9082   2.9082   5.9673
     6.0529   7.2852   7.2852   8.5656   8.5656   8.6664  10.4934  11.6829
    19.7231  20.0162  20.0162  20.9518

          k = 0.3128 0.3128 0.3128 (  2413 PWs)   bands (ev):

    -5.4905  -2.3675  -2.3675  -2.3669   1.5949   1.5954   1.5954   4.6093
     7.8594   7.8594   7.8612   9.0892   9.0907   9.0907  11.0868  11.0885
    20.1316  20.1337  20.1337  21.4759

          k = 0.3128 0.3128 0.4379 (  2409 PWs)   bands (ev):

    -4.6704  -3.6093  -1.9048  -1.9048   0.6709   0.6709   2.3184   3.3442
     8.1515   8.1515   9.3620   9.3620   9.5614   9.6797  10.3768  10.7484
    20.6404  21.0584  21.0584  21.1250

          k = 0.3128 0.4379 0.0626 (  2419 PWs)   bands (ev):

    -5.4866  -4.3849  -2.2991  -1.3902   2.4510   3.2886   4.7316   5.2262
     5.4862   6.3189   7.2052   8.2037   8.5002   8.6811   9.7933  11.1895
    20.5140  20.6580  20.8441  22.3115

          k = 0.3128 0.4379 0.1877 (  2414 PWs)   bands (ev):

    -5.2122  -4.1217  -2.1158  -1.4099   1.1614   1.8387   3.7404   4.7967
     6.4661   6.9764   8.5604   8.7695   8.8999   9.5552   9.7563  11.0042
    20.4343  20.7082  20.8387  21.5304

          k = 0.3128 0.4379 0.3128 (  2409 PWs)   bands (ev):

    -4.6705  -3.6097  -1.9048  -1.9045   0.6708   0.6711   2.3188   3.3445
     8.1522   8.1531   9.3608   9.3616   9.5597   9.6811  10.3781  10.7470
    20.6421  21.0563  21.0580  21.1262

          k = 0.3128 0.4379 0.4379 (  2410 PWs)   bands (ev):

    -3.8809  -2.8969  -2.8967  -2.1614   0.4247   1.1421   1.1422   2.0971
     8.8470   9.3139   9.3145   9.9980  10.0067  10.1348  10.1351  10.7528
    21.1892  21.4639  21.4647  21.7350

          k = 0.4379 0.4379 0.0626 (  2427 PWs)   bands (ev):

    -4.6627  -3.5890  -3.5890  -2.5687   3.1787   4.1255   4.1255   5.1440
     5.3758   6.2346   6.2346   7.1642   9.6338   9.9591   9.9591  10.9161
    20.6635  21.6421  21.6421  21.6968

          k = 0.4379 0.4379 0.1877 (  2402 PWs)   bands (ev):

    -4.3975  -3.3452  -3.3452  -2.3814   1.6360   2.5574   2.5574   3.5650
     7.1469   7.8732   7.8732   8.7324   9.7638  10.0281  10.0281  10.8681
    20.8560  21.6417  21.6421  21.7725

          k = 0.4379 0.4379 0.3128 (  2410 PWs)   bands (ev):

    -3.8811  -2.8970  -2.8970  -2.1615   0.4249   1.1425   1.1425   2.0973
     8.8487   9.3154   9.3154   9.9965  10.0081  10.1337  10.1337  10.7514
    21.1873  21.4647  21.4647  21.7346

          k = 0.4379 0.4379 0.4379 (  2404 PWs)   bands (ev):

    -3.1607  -2.4156  -2.4156  -2.4155   0.1640   0.1641   0.1641   0.8943
    10.1080  10.1080  10.1096  10.2802  10.2817  10.2817  10.5497  10.5516
    21.5338  21.5348  21.5350  21.7379

     the Fermi energy is    15.3651 ev

!    total energy              =     -99.34996266 Ry
     estimated scf accuracy    <          7.0E-13 Ry
     smearing contrib. (-TS)   =      -0.00000003 Ry
     internal energy E=F+TS    =     -99.34996263 Ry

     The total energy is F=E-TS. E is the sum of the following terms:
     one-electron contribution =      32.55252069 Ry
     hartree contribution      =       7.78351874 Ry
     xc contribution           =     -37.49146468 Ry
     ewald contribution        =    -102.19453738 Ry

     convergence has been achieved in  10 iterations

     Forces acting on atoms (cartesian axes, Ry/au):

     atom    1 type  1   force =     0.00000001   -0.00000001    0.00000003
     atom    2 type  1   force =     0.00000000    0.00000000    0.00000000
     atom    3 type  1   force =     0.00000001    0.00000001   -0.00000003
     atom    4 type  1   force =     0.00000000    0.00000000    0.00000000
     atom    5 type  1   force =    -0.00000001   -0.00000001   -0.00000003
     atom    6 type  1   force =     0.00000000    0.00000000    0.00000000
     atom    7 type  1   force =    -0.00000001    0.00000001    0.00000003
     atom    8 type  1   force =     0.00000000    0.00000000    0.00000000
     The non-local contrib.  to forces
     atom    1 type  1   force =     0.00000001   -0.00000001    0.00000003
     atom    2 type  1   force =     0.00000000    0.00000000    0.00000000
     atom    3 type  1   force =     0.00000001    0.00000001   -0.00000003
     atom    4 type  1   force =     0.00000000    0.00000000    0.00000000
     atom    5 type  1   force =    -0.00000001   -0.00000001   -0.00000003
     atom    6 type  1   force =     0.00000000    0.00000000    0.00000000
     atom    7 type  1   force =    -0.00000001    0.00000001    0.00000003
     atom    8 type  1   force =     0.00000000    0.00000000    0.00000000
     The ionic contribution  to forces
     atom    1 type  1   force =     0.00000003   -0.00000003    0.00000013
     atom    2 type  1   force =    -0.00000000   -0.00000000   -0.00000000
     atom    3 type  1   force =     0.00000003    0.00000003   -0.00000013
     atom    4 type  1   force =    -0.00000000    0.00000000   -0.00000000
     atom    5 type  1   force =    -0.00000003   -0.00000003   -0.00000013
     atom    6 type  1   force =     0.00000000   -0.00000000   -0.00000000
     atom    7 type  1   force =    -0.00000003    0.00000003    0.00000013
     atom    8 type  1   force =     0.00000000    0.00000000   -0.00000000
     The local contribution  to forces
     atom    1 type  1   force =    -0.00000003    0.00000003   -0.00000012
     atom    2 type  1   force =    -0.00000000    0.00000000    0.00000000
     atom    3 type  1   force =    -0.00000003   -0.00000003    0.00000012
     atom    4 type  1   force =    -0.00000000    0.00000000   -0.00000000
     atom    5 type  1   force =     0.00000003    0.00000003    0.00000012
     atom    6 type  1   force =     0.00000000    0.00000000   -0.00000000
     atom    7 type  1   force =     0.00000003   -0.00000003   -0.00000012
     atom    8 type  1   force =     0.00000000    0.00000000    0.00000000
     The core correction contribution to forces
     atom    1 type  1   force =    -0.00000000    0.00000000   -0.00000000
     atom    2 type  1   force =    -0.00000000   -0.00000000    0.00000000
     atom    3 type  1   force =    -0.00000000   -0.00000000    0.00000000
     atom    4 type  1   force =    -0.00000000   -0.00000000    0.00000000
     atom    5 type  1   force =     0.00000000    0.00000000    0.00000000
     atom    6 type  1   force =    -0.00000000   -0.00000000   -0.00000000
     atom    7 type  1   force =     0.00000000   -0.00000000   -0.00000000
     atom    8 type  1   force =    -0.00000000   -0.00000000    0.00000000
     The Hubbard contrib.    to forces
     atom    1 type  1   force =     0.00000000    0.00000000    0.00000000
     atom    2 type  1   force =     0.00000000    0.00000000    0.00000000
     atom    3 type  1   force =     0.00000000    0.00000000    0.00000000
     atom    4 type  1   force =     0.00000000    0.00000000    0.00000000
     atom    5 type  1   force =     0.00000000    0.00000000    0.00000000
     atom    6 type  1   force =     0.00000000    0.00000000    0.00000000
     atom    7 type  1   force =     0.00000000    0.00000000    0.00000000
     atom    8 type  1   force =     0.00000000    0.00000000    0.00000000
     The SCF correction term to forces
     atom    1 type  1   force =    -0.00000000    0.00000000   -0.00000000
     atom    2 type  1   force =    -0.00000000   -0.00000000   -0.00000000
     atom    3 type  1   force =    -0.00000000   -0.00000000    0.00000000
     atom    4 type  1   force =    -0.00000000   -0.00000000   -0.00000000
     atom    5 type  1   force =     0.00000000    0.00000000    0.00000000
     atom    6 type  1   force =    -0.00000000   -0.00000000   -0.00000000
     atom    7 type  1   force =     0.00000000   -0.00000000   -0.00000000
     atom    8 type  1   force =    -0.00000000   -0.00000000   -0.00000000

     Total force =     0.000000     Total SCF correction =     0.000000


     Computing stress (Cartesian axis) and pressure

          total   stress  (Ry/bohr**3)                   (kbar)     P=        0.06
  -0.00000186   0.00000000   0.00000000           -0.27        0.00        0.00
   0.00000000  -0.00000186   0.00000000            0.00       -0.27        0.00
   0.00000000   0.00000000   0.00000497            0.00        0.00        0.73

     Energy error            =      2.7E-05 Ry
     Gradient error          =      3.1E-08 Ry/Bohr
     Cell gradient error     =      7.3E-01 kbar

     number of scf cycles    =   3
     number of bfgs steps    =   1

     enthalpy           old  =     -99.3499358569 Ry
     enthalpy           new  =     -99.3499626603 Ry

     CASE: enthalpy          _new < enthalpy          _old

     new trust radius        =       0.0004301525 bohr
     new conv_thr            =            1.0E-14 Ry

     new unit-cell volume =    307.14942 a.u.^3 (    45.51485 Ang^3 )
     density =      3.50241 g/cm^3

CELL_PARAMETERS (angstrom)
   3.570331383   0.000000000   0.000000000
   0.000000000   3.570331383   0.000000000
   0.000000000   0.000000000   3.570557570

ATOMIC_POSITIONS (crystal)
C             0.2500000004        0.7499999996        0.2500000011
C             0.0000000000        0.0000000000        0.5000000000
C             0.2500000004        0.2500000004        0.7499999989
C             0.0000000000        0.5000000000        0.0000000000
C             0.7499999996        0.7499999996        0.7499999989
C             0.5000000000        0.0000000000        0.0000000000
C             0.7499999996        0.2500000004        0.2500000011
C             0.5000000000        0.5000000000        0.5000000000



     Writing config-only to output data dir ./C.save/
     NEW-OLD atomic charge density approx. for the potential

     Check: negative core charge=   -0.000040
     extrapolated charge   32.00079, renormalised to   32.00000

     total cpu time spent up to now is       11.8 secs

     Self-consistent Calculation

     iteration #  1     ecut=    60.00 Ry     beta= 0.30
     Davidson diagonalization with overlap
     ethr =  1.00E-06,  avg # of iterations =  2.0

     Threshold (ethr) on eigenvalues was too large:
     Diagonalizing with lowered threshold

     Davidson diagonalization with overlap
     ethr =  7.57E-12,  avg # of iterations =  4.8

     total cpu time spent up to now is       12.4 secs

     total energy              =     -99.34996271 Ry
     estimated scf accuracy    <          2.4E-09 Ry

     iteration #  2     ecut=    60.00 Ry     beta= 0.30
     Davidson diagonalization with overlap
     ethr =  7.54E-12,  avg # of iterations =  2.0

     total cpu time spent up to now is       12.7 secs

     total energy              =     -99.34996271 Ry
     estimated scf accuracy    <          7.6E-10 Ry

     iteration #  3     ecut=    60.00 Ry     beta= 0.30
     Davidson diagonalization with overlap
     ethr =  2.36E-12,  avg # of iterations =  1.0

     total cpu time spent up to now is       13.0 secs

     total energy              =     -99.34996271 Ry
     estimated scf accuracy    <          4.2E-10 Ry

     iteration #  4     ecut=    60.00 Ry     beta= 0.30
     Davidson diagonalization with overlap
     ethr =  1.31E-12,  avg # of iterations =  1.9

     total cpu time spent up to now is       13.2 secs

     total energy              =     -99.34996271 Ry
     estimated scf accuracy    <          6.4E-12 Ry

     iteration #  5     ecut=    60.00 Ry     beta= 0.30
     Davidson diagonalization with overlap
     ethr =  1.00E-13,  avg # of iterations =  1.3

     total cpu time spent up to now is       13.4 secs

     total energy              =     -99.34996271 Ry
     estimated scf accuracy    <          2.4E-12 Ry

     iteration #  6     ecut=    60.00 Ry     beta= 0.30
     Davidson diagonalization with overlap
     ethr =  1.00E-13,  avg # of iterations =  1.0

     total cpu time spent up to now is       13.7 secs

     total energy              =     -99.34996271 Ry
     estimated scf accuracy    <          1.4E-13 Ry

     iteration #  7     ecut=    60.00 Ry     beta= 0.30
     Davidson diagonalization with overlap
     ethr =  1.00E-13,  avg # of iterations =  1.0

     total cpu time spent up to now is       13.9 secs

     total energy              =     -99.34996271 Ry
     estimated scf accuracy    <          2.3E-13 Ry

     iteration #  8     ecut=    60.00 Ry     beta= 0.30
     Davidson diagonalization with overlap
     ethr =  1.00E-13,  avg # of iterations =  1.0

     total cpu time spent up to now is       14.1 secs

     End of self-consistent calculation

          k = 0.0626 0.0626 0.0626 (  2436 PWs)   bands (ev):

    -8.0343  -0.3834  -0.3825  -0.3825   1.5917   1.5927   1.5927   6.6666
     6.6666   6.6675   7.0882   7.0882   7.0891  12.5475  13.0882  13.0889
    18.0178  18.0178  18.0193  18.7825

          k = 0.0626 0.0626 0.1877 (  2428 PWs)   bands (ev):

    -7.7472  -2.2039  -0.1815  -0.1815   1.7120   1.7120   3.6436   5.8479
     5.8479   6.9106   6.9106   6.9827   7.3672  11.4304  12.1696  12.7369
    17.7682  18.7909  18.7909  18.9284

          k = 0.0626 0.0626 0.3128 (  2416 PWs)   bands (ev):

    -7.1753  -3.8206   0.1719   0.1719   1.8576   1.8576   5.0431   5.0431
     5.6465   6.3553   6.3553   7.6448   7.9164  10.1162  10.9430  11.6854
    17.7358  18.5847  20.4183  20.4183

          k = 0.0626 0.0626 0.4379 (  2413 PWs)   bands (ev):

    -6.3237  -5.2009   0.5178   0.5178   1.8841   1.8841   4.6123   4.6123
     5.8614   5.8614   7.3870   8.7206   8.7514   8.7913   9.7493  10.2412
    17.9018  18.2100  22.4818  22.4819

          k = 0.0626 0.1877 0.0626 (  2429 PWs)   bands (ev):

    -7.7471  -2.2032  -0.1823  -0.1815   1.7111   1.7120   3.6447   5.8478
     5.8485   6.9105   6.9114   6.9819   7.3663  11.4303  12.1691  12.7375
    17.7666  18.7911  18.7926  18.9275

          k = 0.0626 0.1877 0.1877 (  2413 PWs)   bands (ev):

    -7.4610  -1.9616  -1.9609  -0.0395   1.7475   3.5566   3.5574   4.8162
     6.2713   6.2717   7.2425   7.2432   7.5589  10.1943  11.5067  12.7609
    18.6065  18.7090  18.7107  19.6447

          k = 0.0626 0.1877 0.3128 (  2420 PWs)   bands (ev):

    -6.8913  -3.5578  -1.4959   0.0735   1.7575   3.2140   4.2756   5.1242
     5.5760   6.9346   7.1189   7.6098   8.0070   8.8602  10.3649  12.1150
    18.7489  19.4972  19.5671  20.4162

          k = 0.0626 0.1877 0.4379 (  2420 PWs)   bands (ev):

    -6.0434  -4.9270  -0.8648  -0.2247   2.0007   2.5947   4.4134   4.9442
     6.3790   6.9385   7.2752   7.5804   8.1271   9.1992   9.3373  10.8614
    18.9395  19.2404  21.2003  22.4227

          k = 0.0626 0.3128 0.0626 (  2416 PWs)   bands (ev):

    -7.1752  -3.8200   0.1713   0.1720   1.8570   1.8576   5.0430   5.0434
     5.6475   6.3551   6.3559   7.6442   7.9155  10.1161  10.9425  11.6861
    17.7343  18.5836  20.4188  20.4201

          k = 0.0626 0.3128 0.1877 (  2420 PWs)   bands (ev):

    -6.8912  -3.5573  -1.4965   0.0735   1.7575   3.2137   4.2756   5.1246
     5.5761   6.9349   7.1187   7.6096   8.0066   8.8601  10.3648  12.1152
    18.7473  19.4976  19.5660  20.4181

          k = 0.0626 0.3128 0.3128 (  2416 PWs)   bands (ev):

    -6.3261  -3.0421  -3.0417  -0.4781   1.8865   4.2460   4.2460   4.2463
     6.3425   6.3427   7.5473   8.2061   8.2064   8.4474   9.3043  12.0283
    19.5004  20.4906  20.4923  20.6978

          k = 0.0626 0.3128 0.4379 (  2417 PWs)   bands (ev):

    -5.4867  -4.3850  -2.2989  -1.3901   2.4502   3.2879   4.7307   5.2256
     5.4853   6.3183   7.2045   8.2028   8.5007   8.6816   9.7933  11.1896
    20.5145  20.6579  20.8438  22.3109

          k = 0.0626 0.4379 0.0626 (  2413 PWs)   bands (ev):

    -6.3235  -5.2005   0.5174   0.5177   1.8838   1.8839   4.6121   4.6122
     5.8612   5.8616   7.3875   8.7199   8.7514   8.7913   9.7486  10.2417
    17.9004  18.2088  22.4826  22.4837

          k = 0.0626 0.4379 0.1877 (  2420 PWs)   bands (ev):

    -6.0432  -4.9267  -0.8652  -0.2250   2.0007   2.5946   4.4134   4.9443
     6.3790   6.9382   7.2748   7.5803   8.1269   9.1990   9.3375  10.8618
    18.9380  19.2392  21.2010  22.4244

          k = 0.0626 0.4379 0.3128 (  2413 PWs)   bands (ev):

    -5.4866  -4.3848  -2.2992  -1.3903   2.4502   3.2880   4.7308   5.2255
     5.4854   6.3183   7.2043   8.2028   8.5003   8.6813   9.7937  11.1899
    20.5150  20.6563  20.8427  22.3106

          k = 0.0626 0.4379 0.4379 (  2427 PWs)   bands (ev):

    -4.6627  -3.5891  -3.5889  -2.5686   3.1780   4.1248   4.1248   5.1433
     5.3748   6.2336   6.2337   7.1632   9.6342   9.9593   9.9596  10.9164
    20.6642  21.6426  21.6429  21.6974

          k = 0.1877 0.1877 0.0626 (  2413 PWs)   bands (ev):

    -7.4610  -1.9609  -1.9609  -0.0402   1.7468   3.5574   3.5574   4.8165
     6.2711   6.2711   7.2424   7.2424   7.5598  10.1943  11.5061  12.7615
    18.6080  18.7092  18.7092  19.6444

          k = 0.1877 0.1877 0.1877 (  2415 PWs)   bands (ev):

    -7.1759  -1.7353  -1.7347  -1.7347   3.1161   3.1164   3.1164   5.6854
     5.6857   5.6857   7.8203   7.8203   7.8212   8.8354  12.0692  12.0700
    18.7467  18.7467  18.7482  20.4508

          k = 0.1877 0.1877 0.3128 (  2411 PWs)   bands (ev):

    -6.6084  -3.3012  -1.3255  -1.3255   2.2846   2.2846   4.1136   5.6272
     5.6272   7.2833   7.4519   7.9036   7.9036   8.3345  11.0568  11.7748
    19.0129  19.6808  19.6808  20.1713

          k = 0.1877 0.1877 0.4379 (  2426 PWs)   bands (ev):

    -5.7648  -4.6560  -0.9021  -0.9021   1.5556   1.5556   5.0772   5.7893
     5.7893   6.1830   7.7281   7.7281   9.0762   9.0777  10.0102  10.6756
    19.3717  19.7790  21.3290  21.3290

          k = 0.1877 0.3128 0.0626 (  2420 PWs)   bands (ev):

    -6.8912  -3.5573  -1.4959   0.0731   1.7570   3.2138   4.2753   5.1245
     5.5757   6.9346   7.1184   7.6106   8.0068   8.8600  10.3643  12.1157
    18.7475  19.4989  19.5661  20.4167

          k = 0.1877 0.3128 0.1877 (  2413 PWs)   bands (ev):

    -6.6084  -3.3007  -1.3260  -1.3255   2.2845   2.2847   4.1134   5.6265
     5.6271   7.2841   7.4518   7.9035   7.9044   8.3336  11.0562  11.7755
    19.0115  19.6811  19.6824  20.1703

          k = 0.1877 0.3128 0.3128 (  2419 PWs)   bands (ev):

[...]

     iteration #  9     ecut=    60.00 Ry     beta= 0.30
     Davidson diagonalization with overlap
     ethr =  7.91E-13,  avg # of iterations =  3.5

     total cpu time spent up to now is       18.0 secs

     total energy              =     -99.34993847 Ry
     estimated scf accuracy    <          1.8E-10 Ry

     iteration # 10     ecut=    60.00 Ry     beta= 0.30
     Davidson diagonalization with overlap
     ethr =  5.56E-13,  avg # of iterations =  2.0

     total cpu time spent up to now is       18.3 secs

     total energy              =     -99.34993847 Ry
     estimated scf accuracy    <          3.8E-11 Ry

     iteration # 11     ecut=    60.00 Ry     beta= 0.30
     Davidson diagonalization with overlap
     ethr =  1.19E-13,  avg # of iterations =  2.0

     total cpu time spent up to now is       18.6 secs

     total energy              =     -99.34993847 Ry
     estimated scf accuracy    <          6.3E-13 Ry

     iteration # 12     ecut=    60.00 Ry     beta= 0.30
     Davidson diagonalization with overlap
     ethr =  1.00E-13,  avg # of iterations =  1.0

     total cpu time spent up to now is       18.8 secs

     total energy              =     -99.34993847 Ry
     estimated scf accuracy    <          7.3E-13 Ry

     iteration # 13     ecut=    60.00 Ry     beta= 0.30
     Davidson diagonalization with overlap
     ethr =  1.00E-13,  avg # of iterations =  1.0

     total cpu time spent up to now is       19.0 secs

     total energy              =     -99.34993847 Ry
     estimated scf accuracy    <          7.7E-14 Ry

     iteration # 14     ecut=    60.00 Ry     beta= 0.30
     Davidson diagonalization with overlap
     ethr =  1.00E-13,  avg # of iterations =  1.0

     total cpu time spent up to now is       19.3 secs

     End of self-consistent calculation

          k = 0.0626 0.0626 0.0626 (  2430 PWs)   bands (ev):

    -8.0343  -0.3834  -0.3825  -0.3825   1.5917   1.5927   1.5927   6.6666
     6.6666   6.6675   7.0882   7.0882   7.0891  12.5476  13.0883  13.0890
    18.0179  18.0179  18.0194  19.1225

          k = 0.0626 0.0626 0.1877 (  2422 PWs)   bands (ev):

    -7.7472  -2.2039  -0.1815  -0.1815   1.7120   1.7120   3.6436   5.8479
     5.8479   6.9106   6.9106   6.9827   7.3672  11.4304  12.1697  12.7370
    17.7682  18.7909  18.7909  18.9284

          k = 0.0626 0.0626 0.3128 (  2406 PWs)   bands (ev):

    -7.1753  -3.8206   0.1719   0.1719   1.8576   1.8576   5.0432   5.0432
     5.6465   6.3554   6.3554   7.6449   7.9164  10.1162  10.9430  11.6854
    17.7358  18.5847  20.4183  20.4183

          k = 0.0626 0.0626 0.4379 (  2411 PWs)   bands (ev):

    -6.3237  -5.2009   0.5178   0.5178   1.8841   1.8841   4.6123   4.6123
     5.8614   5.8614   7.3870   8.7206   8.7514   8.7913   9.7493  10.2412
    17.9018  18.2100  22.4818  22.4818

          k = 0.0626 0.1877 0.0626 (  2422 PWs)   bands (ev):

    -7.7471  -2.2032  -0.1823  -0.1815   1.7111   1.7120   3.6447   5.8478
     5.8485   6.9105   6.9114   6.9819   7.3663  11.4304  12.1692  12.7375
    17.7666  18.7911  18.7926  18.9275

          k = 0.0626 0.1877 0.1877 (  2407 PWs)   bands (ev):

    -7.4610  -1.9615  -1.9609  -0.0395   1.7475   3.5566   3.5574   4.8162
     6.2713   6.2717   7.2425   7.2432   7.5589  10.1943  11.5067  12.7609
    18.6065  18.7091  18.7107  19.6447

          k = 0.0626 0.1877 0.3128 (  2414 PWs)   bands (ev):

    -6.8913  -3.5578  -1.4959   0.0735   1.7575   3.2141   4.2756   5.1242
     5.5760   6.9346   7.1189   7.6098   8.0070   8.8602  10.3650  12.1150
    18.7489  19.4972  19.5671  20.4163

          k = 0.0626 0.1877 0.4379 (  2410 PWs)   bands (ev):

    -6.0434  -4.9270  -0.8648  -0.2247   2.0007   2.5947   4.4134   4.9443
     6.3791   6.9385   7.2752   7.5804   8.1271   9.1992   9.3373  10.8614
    18.9395  19.2405  21.2003  22.4227

          k = 0.0626 0.3128 0.0626 (  2406 PWs)   bands (ev):

    -7.1752  -3.8200   0.1713   0.1720   1.8570   1.8576   5.0430   5.0434
     5.6475   6.3551   6.3559   7.6443   7.9156  10.1161  10.9425  11.6861
    17.7343  18.5836  20.4188  20.4202

          k = 0.0626 0.3128 0.1877 (  2414 PWs)   bands (ev):

    -6.8912  -3.5573  -1.4965   0.0735   1.7575   3.2137   4.2756   5.1246
     5.5761   6.9349   7.1187   7.6096   8.0066   8.8601  10.3648  12.1152
    18.7473  19.4976  19.5661  20.4181

          k = 0.0626 0.3128 0.3128 (  2406 PWs)   bands (ev):

    -6.3261  -3.0421  -3.0417  -0.4781   1.8865   4.2460   4.2460   4.2463
     6.3425   6.3427   7.5473   8.2062   8.2064   8.4474   9.3043  12.0283
    19.5004  20.4906  20.4923  20.6978

          k = 0.0626 0.3128 0.4379 (  2410 PWs)   bands (ev):

    -5.4867  -4.3850  -2.2989  -1.3901   2.4502   3.2879   4.7307   5.2256
     5.4853   6.3183   7.2045   8.2029   8.5007   8.6816   9.7933  11.1896
    20.5145  20.6579  20.8438  22.3124

          k = 0.0626 0.4379 0.0626 (  2411 PWs)   bands (ev):

    -6.3235  -5.2005   0.5174   0.5177   1.8838   1.8839   4.6121   4.6122
     5.8612   5.8616   7.3875   8.7199   8.7514   8.7913   9.7486  10.2417
    17.9004  18.2088  22.4826  22.4838

          k = 0.0626 0.4379 0.1877 (  2410 PWs)   bands (ev):

    -6.0432  -4.9267  -0.8652  -0.2250   2.0007   2.5947   4.4134   4.9444
     6.3791   6.9383   7.2748   7.5803   8.1269   9.1990   9.3375  10.8618
    18.9380  19.2392  21.2010  22.4244

          k = 0.0626 0.4379 0.3128 (  2410 PWs)   bands (ev):

    -5.4866  -4.3848  -2.2992  -1.3903   2.4503   3.2880   4.7308   5.2255
     5.4854   6.3183   7.2043   8.2028   8.5003   8.6813   9.7937  11.1899
    20.5150  20.6563  20.8427  22.3124

          k = 0.0626 0.4379 0.4379 (  2421 PWs)   bands (ev):

    -4.6627  -3.5891  -3.5889  -2.5686   3.1780   4.1248   4.1248   5.1433
     5.3748   6.2337   6.2337   7.1632   9.6342   9.9593   9.9596  10.9164
    20.6642  21.6426  21.6431  21.6974

          k = 0.1877 0.1877 0.0626 (  2407 PWs)   bands (ev):

    -7.4610  -1.9609  -1.9609  -0.0402   1.7468   3.5574   3.5574   4.8165
     6.2711   6.2711   7.2424   7.2424   7.5598  10.1943  11.5061  12.7615
    18.6080  18.7092  18.7092  19.6444

          k = 0.1877 0.1877 0.1877 (  2409 PWs)   bands (ev):

    -7.1759  -1.7353  -1.7347  -1.7347   3.1161   3.1164   3.1164   5.6854
     5.6857   5.6857   7.8203   7.8203   7.8212   8.8354  12.0692  12.0700
    18.7467  18.7467  18.7482  20.4507

          k = 0.1877 0.1877 0.3128 (  2406 PWs)   bands (ev):

    -6.6084  -3.3012  -1.3255  -1.3255   2.2846   2.2846   4.1136   5.6272
     5.6272   7.2833   7.4519   7.9036   7.9036   8.3345  11.0568  11.7748
    19.0129  19.6808  19.6808  20.1713

          k = 0.1877 0.1877 0.4379 (  2416 PWs)   bands (ev):

    -5.7648  -4.6560  -0.9021  -0.9021   1.5556   1.5556   5.0772   5.7893
     5.7893   6.1830   7.7281   7.7281   9.0762   9.0778  10.0102  10.6756
    19.3717  19.7790  21.3290  21.3290

          k = 0.1877 0.3128 0.0626 (  2414 PWs)   bands (ev):

    -6.8912  -3.5573  -1.4958   0.0731   1.7570   3.2138   4.2753   5.1245
     5.5757   6.9346   7.1184   7.6106   8.0068   8.8600  10.3644  12.1157
    18.7475  19.4989  19.5661  20.4167

          k = 0.1877 0.3128 0.1877 (  2406 PWs)   bands (ev):

    -6.6084  -3.3007  -1.3260  -1.3255   2.2845   2.2847   4.1134   5.6265
     5.6272   7.2841   7.4518   7.9035   7.9044   8.3336  11.0562  11.7755
    19.0115  19.6811  19.6824  20.1704

          k = 0.1877 0.3128 0.3128 (  2407 PWs)   bands (ev):

    -6.0462  -2.8038  -2.8034  -1.1432   1.3356   2.9076   2.9078   5.9663
     6.0525   7.2845   7.2853   8.5649   8.5654   8.6669  10.4925  11.6831
    19.7237  20.0146  20.0160  20.9513

          k = 0.1877 0.3128 0.4379 (  2407 PWs)   bands (ev):

    -5.2124  -4.1218  -2.1157  -1.4101   1.1610   1.8382   3.7400   4.7963
     6.4651   6.9758   8.5596   8.7696   8.9004   9.5543   9.7564  11.0043
    20.4340  20.7086  20.8383  21.5293

          k = 0.1877 0.4379 0.0626 (  2410 PWs)   bands (ev):

    -6.0432  -4.9266  -0.8647  -0.2247   2.0002   2.5943   4.4128   4.9437
     6.3789   6.9388   7.2757   7.5802   8.1265   9.1985   9.3379  10.8623
    18.9382  19.2393  21.2022  22.4236

          k = 0.1877 0.4379 0.1877 (  2416 PWs)   bands (ev):

    -5.7646  -4.6557  -0.9023  -0.9021   1.5554   1.5556   5.0769   5.7887
     5.7890   6.1828   7.7280   7.7284   9.0768   9.0773  10.0095  10.6765
    19.3705  19.7779  21.3297  21.3307

          k = 0.1877 0.4379 0.3128 (  2407 PWs)   bands (ev):

    -5.2122  -4.1216  -2.1160  -1.4102   1.1610   1.8383   3.7398   4.7962
     6.4651   6.9755   8.5597   8.7695   8.9002   9.5542   9.7565  11.0046
    20.4328  20.7090  20.8374  21.5304

          k = 0.1877 0.4379 0.4379 (  2399 PWs)   bands (ev):

    -4.3976  -3.3453  -3.3452  -2.3815   1.6354   2.5568   2.5569   3.5645
     7.1458   7.8722   7.8722   8.7314   9.7642  10.0283  10.0285  10.8684
    20.8565  21.6418  21.6419  21.7730

          k = 0.3128 0.3128 0.0626 (  2406 PWs)   bands (ev):

    -6.3260  -3.0416  -3.0416  -0.4781   1.8859   4.2456   4.2457   4.2457
     6.3420   6.3420   7.5471   8.2067   8.2067   8.4483   9.3037  12.0290
    19.5019  20.4910  20.4910  20.6975

          k = 0.3128 0.3128 0.1877 (  2407 PWs)   bands (ev):

    -6.0461  -2.8034  -2.8034  -1.1434   1.3357   2.9074   2.9074   5.9653
     6.0524   7.2849   7.2849   8.5651   8.5651   8.6678  10.4919  11.6838
    19.7251  20.0148  20.0148  20.9512

          k = 0.3128 0.3128 0.3128 (  2407 PWs)   bands (ev):

    -5.4907  -2.3678  -2.3674  -2.3674   1.5949   1.5949   1.5952   4.6091
     7.8589   7.8600   7.8600   9.0896   9.0896   9.0905  11.0868  11.0877
    20.1321  20.1321  20.1333  21.4753

          k = 0.3128 0.3128 0.4379 (  2407 PWs)   bands (ev):

    -4.6707  -3.6099  -1.9049  -1.9049   0.6707   0.6707   2.3186   3.3442
     8.1524   8.1524   9.3608   9.3608   9.5592   9.6808  10.3778  10.7465
    20.6417  21.0565  21.0565  21.1257

          k = 0.3128 0.4379 0.0626 (  2410 PWs)   bands (ev):

    -5.4865  -4.3847  -2.2987  -1.3899   2.4496   3.2874   4.7299   5.2252
     5.4846   6.3180   7.2037   8.2021   8.5013   8.6824   9.7943  11.1906
    20.5162  20.6566  20.8428  22.3138

          k = 0.3128 0.4379 0.1877 (  2407 PWs)   bands (ev):

    -5.2122  -4.1215  -2.1156  -1.4100   1.1607   1.8379   3.7396   4.7960
     6.4642   6.9751   8.5590   8.7701   8.9011   9.5536   9.7571  11.0052
    20.4330  20.7102  20.8375  21.5298

          k = 0.3128 0.4379 0.3128 (  2407 PWs)   bands (ev):

    -4.6706  -3.6097  -1.9051  -1.9049   0.6707   0.6708   2.3184   3.3441
     8.1515   8.1520   9.3610   9.3615   9.5602   9.6800  10.3771  10.7474
    20.6407  21.0567  21.0577  21.1250

          k = 0.3128 0.4379 0.4379 (  2400 PWs)   bands (ev):

    -3.8812  -2.8972  -2.8971  -2.1617   0.4247   1.1420   1.1421   2.0970
     8.8475   9.3144   9.3147   9.9968  10.0071  10.1338  10.1340  10.7518
    21.1876  21.4638  21.4643  21.7338

          k = 0.4379 0.4379 0.0626 (  2421 PWs)   bands (ev):

    -4.6625  -3.5887  -3.5887  -2.5684   3.1774   4.1243   4.1243   5.1428
     5.3740   6.2329   6.2329   7.1625   9.6352   9.9603   9.9603  10.9173
    20.6657  21.6443  21.6443  21.6990

          k = 0.4379 0.4379 0.1877 (  2399 PWs)   bands (ev):

    -4.3974  -3.3450  -3.3450  -2.3812   1.6350   2.5565   2.5565   3.5642
     7.1448   7.8714   7.8714   8.7306   9.7651  10.0293  10.0293  10.8693
    20.8579  21.6426  21.6426  21.7744

          k = 0.4379 0.4379 0.3128 (  2400 PWs)   bands (ev):

    -3.8811  -2.8970  -2.8970  -2.1616   0.4246   1.1419   1.1419   2.0968
     8.8466   9.3138   9.3138   9.9977  10.0063  10.1346  10.1346  10.7526
    21.1888  21.4637  21.4639  21.7338

          k = 0.4379 0.4379 0.4379 (  2392 PWs)   bands (ev):

    -3.1609  -2.4159  -2.4158  -2.4158   0.1639   0.1639   0.1639   0.8941
    10.1076  10.1085  10.1085  10.2805  10.2805  10.2814  10.5497  10.5509
    21.5337  21.5338  21.5347  21.7379

     the Fermi energy is    15.3647 ev

!    total energy              =     -99.34993847 Ry
     estimated scf accuracy    <          3.6E-15 Ry
     smearing contrib. (-TS)   =      -0.00000003 Ry
     internal energy E=F+TS    =     -99.34993844 Ry

     The total energy is F=E-TS. E is the sum of the following terms:
     one-electron contribution =      32.55144462 Ry
     hartree contribution      =       7.78361192 Ry
     xc contribution           =     -37.49130085 Ry
     ewald contribution        =    -102.19369413 Ry

     convergence has been achieved in  14 iterations

     Forces acting on atoms (cartesian axes, Ry/au):

     atom    1 type  1   force =     0.00000000   -0.00000000   -0.00000000
     atom    2 type  1   force =     0.00000000    0.00000000    0.00000000
     atom    3 type  1   force =     0.00000000    0.00000000    0.00000000
     atom    4 type  1   force =     0.00000000    0.00000000    0.00000000
     atom    5 type  1   force =    -0.00000000   -0.00000000    0.00000000
     atom    6 type  1   force =     0.00000000    0.00000000    0.00000000
     atom    7 type  1   force =    -0.00000000    0.00000000   -0.00000000
     atom    8 type  1   force =     0.00000000    0.00000000    0.00000000
     The non-local contrib.  to forces
     atom    1 type  1   force =     0.00000001   -0.00000001    0.00000000
     atom    2 type  1   force =     0.00000000    0.00000000    0.00000000
     atom    3 type  1   force =     0.00000001    0.00000001   -0.00000000
     atom    4 type  1   force =     0.00000000    0.00000000    0.00000000
     atom    5 type  1   force =    -0.00000001   -0.00000001   -0.00000000
     atom    6 type  1   force =     0.00000000    0.00000000    0.00000000
     atom    7 type  1   force =    -0.00000001    0.00000001    0.00000000
     atom    8 type  1   force =     0.00000000    0.00000000    0.00000000
     The ionic contribution  to forces
     atom    1 type  1   force =    -0.00000001    0.00000001   -0.00000004
     atom    2 type  1   force =    -0.00000000   -0.00000000    0.00000000
     atom    3 type  1   force =    -0.00000001   -0.00000001    0.00000004
     atom    4 type  1   force =    -0.00000000    0.00000000   -0.00000000
     atom    5 type  1   force =     0.00000001    0.00000001    0.00000004
     atom    6 type  1   force =     0.00000000    0.00000000   -0.00000000
     atom    7 type  1   force =     0.00000001   -0.00000001   -0.00000004
     atom    8 type  1   force =     0.00000000    0.00000000    0.00000000
     The local contribution  to forces
     atom    1 type  1   force =     0.00000003   -0.00000003    0.00000005
     atom    2 type  1   force =    -0.00000000    0.00000000    0.00000000
     atom    3 type  1   force =     0.00000003    0.00000003   -0.00000005
     atom    4 type  1   force =     0.00000000    0.00000000   -0.00000000
     atom    5 type  1   force =    -0.00000003   -0.00000003   -0.00000005
     atom    6 type  1   force =     0.00000000   -0.00000000   -0.00000000
     atom    7 type  1   force =    -0.00000003    0.00000003    0.00000005
     atom    8 type  1   force =     0.00000000    0.00000000    0.00000000
     The core correction contribution to forces
     atom    1 type  1   force =    -0.00000000    0.00000000   -0.00000000
     atom    2 type  1   force =     0.00000000    0.00000000   -0.00000000
     atom    3 type  1   force =    -0.00000000   -0.00000000    0.00000000
     atom    4 type  1   force =    -0.00000000   -0.00000000    0.00000000
     atom    5 type  1   force =     0.00000000    0.00000000    0.00000000
     atom    6 type  1   force =    -0.00000000    0.00000000    0.00000000
     atom    7 type  1   force =     0.00000000   -0.00000000   -0.00000000
     atom    8 type  1   force =    -0.00000000   -0.00000000   -0.00000000
     The Hubbard contrib.    to forces
     atom    1 type  1   force =     0.00000000    0.00000000    0.00000000
     atom    2 type  1   force =     0.00000000    0.00000000    0.00000000
     atom    3 type  1   force =     0.00000000    0.00000000    0.00000000
     atom    4 type  1   force =     0.00000000    0.00000000    0.00000000
     atom    5 type  1   force =     0.00000000    0.00000000    0.00000000
     atom    6 type  1   force =     0.00000000    0.00000000    0.00000000
     atom    7 type  1   force =     0.00000000    0.00000000    0.00000000
     atom    8 type  1   force =     0.00000000    0.00000000    0.00000000
     The SCF correction term to forces
     atom    1 type  1   force =    -0.00000002    0.00000002   -0.00000001
     atom    2 type  1   force =    -0.00000000    0.00000000    0.00000000
     atom    3 type  1   force =    -0.00000002   -0.00000002    0.00000001
     atom    4 type  1   force =    -0.00000000    0.00000000    0.00000000
     atom    5 type  1   force =     0.00000002    0.00000002    0.00000001
     atom    6 type  1   force =    -0.00000000    0.00000000    0.00000000
     atom    7 type  1   force =     0.00000002   -0.00000002   -0.00000001
     atom    8 type  1   force =    -0.00000000    0.00000000    0.00000000

     Total force =     0.000000     Total SCF correction =     0.000000
     SCF correction compared to forces is large: reduce conv_thr to get better values


     Computing stress (Cartesian axis) and pressure

          total   stress  (Ry/bohr**3)                   (kbar)     P=       -0.04
   0.00000105   0.00000000   0.00000000            0.15        0.00        0.00
   0.00000000   0.00000105   0.00000000            0.00        0.15        0.00
   0.00000000   0.00000000  -0.00000295            0.00        0.00       -0.43


     Writing all to output data dir ./C.save/
 
     init_run     :      0.43s CPU      0.45s WALL (       2 calls)
     electrons    :     16.38s CPU     16.99s WALL (       5 calls)
     update_pot   :      0.15s CPU      0.15s WALL (       3 calls)
     forces       :      0.26s CPU      0.26s WALL (       5 calls)
     stress       :      1.72s CPU      1.74s WALL (       5 calls)

     Called by init_run:
     wfcinit      :      0.27s CPU      0.28s WALL (       2 calls)
     potinit      :      0.03s CPU      0.03s WALL (       2 calls)
     hinit0       :      0.11s CPU      0.12s WALL (       2 calls)

     Called by electrons:
     c_bands      :     13.99s CPU     14.50s WALL (      59 calls)
     sum_band     :      2.20s CPU      2.30s WALL (      59 calls)
     v_of_rho     :      0.10s CPU      0.10s WALL (      62 calls)
     newd         :      0.06s CPU      0.07s WALL (      62 calls)
     mix_rho      :      0.02s CPU      0.02s WALL (      59 calls)

     Called by c_bands:
     init_us_2    :      0.29s CPU      0.30s WALL (    5200 calls)
     init_us_2:cp :      0.29s CPU      0.30s WALL (    5200 calls)
     cegterg      :     12.76s CPU     13.25s WALL (    2360 calls)

     Called by *egterg:
     cdiaghg      :      2.47s CPU      2.55s WALL (    7802 calls)
     h_psi        :      9.04s CPU      9.40s WALL (    8082 calls)
     s_psi        :      0.29s CPU      0.31s WALL (    8082 calls)
     g_psi        :      0.05s CPU      0.06s WALL (    5642 calls)

     Called by h_psi:
     h_psi:calbec :      0.49s CPU      0.52s WALL (    8082 calls)
     vloc_psi     :      8.16s CPU      8.49s WALL (    8082 calls)
     add_vuspsi   :      0.32s CPU      0.33s WALL (    8082 calls)

     General routines
     calbec       :      0.78s CPU      0.81s WALL (   11442 calls)
     fft          :      0.05s CPU      0.07s WALL (     812 calls)
     ffts         :      0.00s CPU      0.00s WALL (      59 calls)
     fftw         :      8.44s CPU      8.79s WALL (  290588 calls)
 
     Parallel routines
 
     PWSCF        :     19.02s CPU     19.72s WALL

 
   This run was terminated on:  11:52:25  22Nov2024            

=------------------------------------------------------------------------------=
   JOB DONE.
=------------------------------------------------------------------------------=
