
     Program MATDYN v.7.0 starts on  1Dec2023 at 15:36:35 

     This program is part of the open-source Quantum ESPRESSO suite
     for quantum simulation of materials; please cite
         "P. Giannozzi et al., J. Phys.:Condens. Matter 21 395502 (2009);
         "P. Giannozzi et al., J. Phys.:Condens. Matter 29 465901 (2017);
         "P. Giannozzi et al., J. Chem. Phys. 152 154105 (2020);
          URL http://www.quantum-espresso.org", 
     in publications or presentations arising from this work. More details at
     http://www.quantum-espresso.org/quote

     Parallel version (MPI), running on     8 processors

     MPI processes distributed on     1 nodes
     R & G space division:  proc/nbgrp/npool/nimage =       8
     338450 MiB available memory on the printing compute node when the environment starts
 
 mass for atomic type   1 not given; uses mass from file GaAs.fc                                                                                                                                                                                                                                                         
 mass for atomic type   2 not given; uses mass from file GaAs.fc                                                                                                                                                                                                                                                         
Norm of the difference between old and new effective charges:    0.00000000000000000000
Norm of the difference between old and new force-constants:   0.00088233292237112099
 
     MATDYN       :     11.93s CPU     11.95s WALL

 
   This run was terminated on:  15:36:47   1Dec2023            

=------------------------------------------------------------------------------=
   JOB DONE.
=------------------------------------------------------------------------------=
