
     Program PHONON v.7.0 starts on  1Dec2023 at 15:27:23 

     This program is part of the open-source Quantum ESPRESSO suite
     for quantum simulation of materials; please cite
         "P. Giannozzi et al., J. Phys.:Condens. Matter 21 395502 (2009);
         "P. Giannozzi et al., J. Phys.:Condens. Matter 29 465901 (2017);
         "P. Giannozzi et al., J. Chem. Phys. 152 154105 (2020);
          URL http://www.quantum-espresso.org", 
     in publications or presentations arising from this work. More details at
     http://www.quantum-espresso.org/quote

     Parallel version (MPI), running on     8 processors

     MPI processes distributed on     1 nodes
     R & G space division:  proc/nbgrp/npool/nimage =       8
     338597 MiB available memory on the printing compute node when the environment starts
 
     Waiting for input...
     Reading input from standard input
      Title line not specified: using 'default'.

     Reading xml data from directory:

     ./GaAs.save/
     file Ga.pbe-dn-kjpaw_psl.1.0.0.UPF: wavefunction(s)  4S renormalized

     IMPORTANT: XC functional enforced from input :
     Exchange-correlation= PBE
                           (   1   4   3   4   0   0   0)
     Any further DFT definition will be discarded
     Please, verify this is what you really want

 
     Parallelization info
     --------------------
     sticks:   dense  smooth     PW     G-vecs:    dense   smooth      PW
     Min         323     160     47                10954     3863     618
     Max         324     161     48                10959     3868     621
     Sum        2587    1285    379                87651    30923    4957
 
     Using Slab Decomposition
 
     Reading collected, re-writing distributed wavefunctions


     Dynamical matrices for ( 2, 2, 2)  uniform grid of q-points
     (   3 q-points):
       N         xq(1)         xq(2)         xq(3) 
       1   0.000000000   0.000000000   0.000000000
       2   0.500000000  -0.500000000   0.500000000
       3   0.000000000  -1.000000000   0.000000000

     Calculation of q =    0.0000000   0.0000000   0.0000000

     default                                                                    

     bravais-lattice index     =            2
     lattice parameter (alat)  =      10.8615  a.u.
     unit-cell volume          =     320.3354 (a.u.)^3
     number of atoms/cell      =            2
     number of atomic types    =            2
     kinetic-energy cut-off    =      80.0000  Ry
     charge density cut-off    =     640.0000  Ry
     convergence threshold     =      1.0E-14
     beta                      =       0.7000
     number of iterations used =            4
     Exchange-correlation= PBE
                           (   1   4   3   4   0   0   0)


     celldm(1)=   10.86146  celldm(2)=    0.00000  celldm(3)=    0.00000
     celldm(4)=    0.00000  celldm(5)=    0.00000  celldm(6)=    0.00000

     crystal axes: (cart. coord. in units of alat)
               a(1) = ( -0.5000  0.0000  0.5000 )  
               a(2) = (  0.0000  0.5000  0.5000 )  
               a(3) = ( -0.5000  0.5000  0.0000 )  

     reciprocal axes: (cart. coord. in units 2 pi/alat)
               b(1) = ( -1.0000 -1.0000  1.0000 )  
               b(2) = (  1.0000  1.0000  1.0000 )  
               b(3) = ( -1.0000  1.0000 -1.0000 )  


     Atoms inside the unit cell: 

     Cartesian axes

     site n.  atom      mass           positions (alat units)
        1     Ga  69.7230   tau(    1) = (    0.00000    0.00000    0.00000  )
        2     As  74.9216   tau(    2) = (    0.25000    0.25000    0.25000  )

     Computing dynamical matrix for 
                    q = (   0.0000000   0.0000000   0.0000000 )
 
     25 Sym.Ops. (with q -> -q+G )


     G cutoff = 1912.4796  (  10955 G-vectors)     FFT grid: ( 64, 64, 64)
     G cutoff =  956.2398  (   3868 G-vectors)  smooth grid: ( 45, 45, 45)
     number of k points=    29

     PseudoPot. # 1 for Ga read from file:
     ./Ga.pbe-dn-kjpaw_psl.1.0.0.UPF
     MD5 check sum: 9ec968fb6aa164ad922e5aaa76dd79f0
     Pseudo is Projector augmented-wave + core cor, Zval = 13.0
     Generated using &quot;atomic&quot; code by A. Dal Corso  v.6.3
     Shape of augmentation charge: PSQ
     Using radial grid of 1205 points,  6 beta functions with: 
                l(1) =   0
                l(2) =   0
                l(3) =   1
                l(4) =   1
                l(5) =   2
                l(6) =   2
     Q(r) pseudized with 0 coefficients 


     PseudoPot. # 2 for As read from file:
     ./As.pbe-n-kjpaw_psl.1.0.0.UPF
     MD5 check sum: 21b474db91924651be503153fb2dbf55
     Pseudo is Projector augmented-wave + core cor, Zval =  5.0
     Generated using &quot;atomic&quot; code by A. Dal Corso  v.6.3
     Shape of augmentation charge: PSQ
     Using radial grid of 1209 points,  4 beta functions with: 
                l(1) =   0
                l(2) =   0
                l(3) =   1
                l(4) =   1
     Q(r) pseudized with 0 coefficients 


     Mode symmetry, T_d (-43m)  point group:


     Electric field:
     Dielectric constant
     Born effective charges in two ways 


     Atomic displacements:
     There are    2 irreducible representations

     Representation     1      3 modes -  To be done

     Representation     2      3 modes -  To be done



     Alpha used in Ewald sum =   2.8000
     PHONON       :      1.54s CPU      1.75s WALL


     Electric Fields Calculation

      iter #   1 total cpu time :     9.8 secs   av.it.:   6.7
      thresh= 1.000E-02 alpha_mix =  0.700 |ddv_scf|^2 =  1.443E-07

      iter #   2 total cpu time :    14.0 secs   av.it.:  16.8
      thresh= 3.799E-05 alpha_mix =  0.700 |ddv_scf|^2 =  8.291E-09

      iter #   3 total cpu time :    18.3 secs   av.it.:  17.3
      thresh= 9.106E-06 alpha_mix =  0.700 |ddv_scf|^2 =  8.249E-10

      iter #   4 total cpu time :    22.6 secs   av.it.:  17.4
      thresh= 2.872E-06 alpha_mix =  0.700 |ddv_scf|^2 =  1.527E-11

      iter #   5 total cpu time :    27.5 secs   av.it.:  20.7
      thresh= 3.908E-07 alpha_mix =  0.700 |ddv_scf|^2 =  6.258E-13

      iter #   6 total cpu time :    32.8 secs   av.it.:  23.2
      thresh= 7.911E-08 alpha_mix =  0.700 |ddv_scf|^2 =  1.489E-13

      iter #   7 total cpu time :    38.3 secs   av.it.:  24.0
      thresh= 3.858E-08 alpha_mix =  0.700 |ddv_scf|^2 =  3.200E-13

      iter #   8 total cpu time :    43.8 secs   av.it.:  24.6
      thresh= 5.657E-08 alpha_mix =  0.700 |ddv_scf|^2 =  3.985E-15

     End of electric fields calculation

          Dielectric constant in cartesian axis 

          (     391.786120376       0.000000000       0.000000000 )
          (       0.000000000     391.786120376       0.000000000 )
          (      -0.000000000       0.000000000     391.786120376 )

          Effective charges (d Force / dE) in cartesian axis without acoustic sum rule applied (asr)

           atom      1   Ga Mean Z*:        2.68551
      Ex  (        2.68551       -0.00000        0.00000 )
      Ey  (       -0.00000        2.68551        0.00000 )
      Ez  (       -0.00000       -0.00000        2.68551 )
           atom      2   As Mean Z*:       -3.19434
      Ex  (       -3.19434        0.00000        0.00000 )
      Ey  (        0.00000       -3.19434        0.00000 )
      Ez  (        0.00000        0.00000       -3.19434 )

          Effective charges Sum: Mean:       -0.50882
             -0.50882       -0.00000        0.00000
              0.00000       -0.50882        0.00000
              0.00000        0.00000       -0.50882

          Effective charges (d Force / dE) in cartesian axis with asr applied: 
           atom      1   Ga Mean Z*:        2.93993
      E*x (        2.93993       -0.00000        0.00000 )
      E*y (       -0.00000        2.93993        0.00000 )
      E*z (       -0.00000       -0.00000        2.93993 )
           atom      2   As Mean Z*:       -2.93993
      E*x (       -2.93993        0.00000        0.00000 )
      E*y (        0.00000       -2.93993        0.00000 )
      E*z (        0.00000        0.00000       -2.93993 )


     Representation #   1 modes #   1   2   3

     Self-consistent Calculation

      iter #   1 total cpu time :    48.1 secs   av.it.:   6.0
      thresh= 1.000E-02 alpha_mix =  0.700 |ddv_scf|^2 =  7.169E-09

      iter #   2 total cpu time :    52.5 secs   av.it.:  17.1
      thresh= 8.467E-06 alpha_mix =  0.700 |ddv_scf|^2 =  2.963E-10

      iter #   3 total cpu time :    56.8 secs   av.it.:  16.3
      thresh= 1.721E-06 alpha_mix =  0.700 |ddv_scf|^2 =  2.592E-11

      iter #   4 total cpu time :    61.2 secs   av.it.:  16.8
      thresh= 5.091E-07 alpha_mix =  0.700 |ddv_scf|^2 =  4.379E-13

      iter #   5 total cpu time :    65.9 secs   av.it.:  19.1
      thresh= 6.617E-08 alpha_mix =  0.700 |ddv_scf|^2 =  7.511E-15

     End of self-consistent calculation

     Convergence has been achieved 


     Representation #   2 modes #   4   5   6

     Self-consistent Calculation

      iter #   1 total cpu time :    69.6 secs   av.it.:  11.3
      thresh= 1.000E-02 alpha_mix =  0.700 |ddv_scf|^2 =  6.536E-07

      iter #   2 total cpu time :    74.1 secs   av.it.:  17.5
      thresh= 8.085E-05 alpha_mix =  0.700 |ddv_scf|^2 =  3.387E-09

      iter #   3 total cpu time :    78.9 secs   av.it.:  19.9
      thresh= 5.819E-06 alpha_mix =  0.700 |ddv_scf|^2 =  3.183E-09

      iter #   4 total cpu time :    83.2 secs   av.it.:  16.6
      thresh= 5.642E-06 alpha_mix =  0.700 |ddv_scf|^2 =  1.340E-09

      iter #   5 total cpu time :    87.7 secs   av.it.:  17.6
      thresh= 3.660E-06 alpha_mix =  0.700 |ddv_scf|^2 =  4.285E-13

      iter #   6 total cpu time :    92.2 secs   av.it.:  17.9
      thresh= 6.546E-08 alpha_mix =  0.700 |ddv_scf|^2 =  1.489E-14

      iter #   7 total cpu time :    96.7 secs   av.it.:  17.7
      thresh= 1.220E-08 alpha_mix =  0.700 |ddv_scf|^2 =  7.969E-16

     End of self-consistent calculation

     Convergence has been achieved 
 
     Number of q in the star =    1
     List of q in the star:
          1   0.000000000   0.000000000   0.000000000

          Dielectric constant in cartesian axis 

          (     391.786120376       0.000000000       0.000000000 )
          (       0.000000000     391.786120376       0.000000000 )
          (      -0.000000000       0.000000000     391.786120376 )

          Effective charges (d Force / dE) in cartesian axis without acoustic sum rule applied (asr)

           atom      1   Ga Mean Z*:        2.68551
      Ex  (        2.68551       -0.00000        0.00000 )
      Ey  (       -0.00000        2.68551        0.00000 )
      Ez  (       -0.00000       -0.00000        2.68551 )
           atom      2   As Mean Z*:       -3.19434
      Ex  (       -3.19434        0.00000        0.00000 )
      Ey  (        0.00000       -3.19434        0.00000 )
      Ez  (        0.00000        0.00000       -3.19434 )

          Effective charges Sum: Mean:       -0.50882
             -0.50882       -0.00000        0.00000
              0.00000       -0.50882        0.00000
              0.00000        0.00000       -0.50882

          Effective charges (d Force / dE) in cartesian axis with asr applied: 
           atom      1   Ga Mean Z*:        2.93993
      E*x (        2.93993       -0.00000        0.00000 )
      E*y (       -0.00000        2.93993        0.00000 )
      E*z (       -0.00000       -0.00000        2.93993 )
           atom      2   As Mean Z*:       -2.93993
      E*x (       -2.93993        0.00000        0.00000 )
      E*y (        0.00000       -2.93993        0.00000 )
      E*z (        0.00000        0.00000       -2.93993 )

          Effective charges (d P / du) in cartesian axis 

           atom      1   Ga 
      Px  (        2.68555       -0.00000       -0.00000 )
      Py  (       -0.00000        2.68555        0.00000 )
      Pz  (       -0.00000        0.00000        2.68555 )
           atom      2   As 
      Px  (       -3.19273        0.00000       -0.00000 )
      Py  (        0.00000       -3.19273       -0.00000 )
      Pz  (       -0.00000        0.00000       -3.19273 )

     Diagonalizing the dynamical matrix

     q = (    0.000000000   0.000000000   0.000000000 ) 

 **************************************************************************
     freq (    1) =      -0.476132 [THz] =     -15.882062 [cm-1]
     freq (    2) =      -0.476132 [THz] =     -15.882062 [cm-1]
     freq (    3) =      -0.476132 [THz] =     -15.882062 [cm-1]
     freq (    4) =       7.615898 [THz] =     254.039028 [cm-1]
     freq (    5) =       7.615898 [THz] =     254.039028 [cm-1]
     freq (    6) =       7.615898 [THz] =     254.039028 [cm-1]
 **************************************************************************

     Mode symmetry, T_d (-43m)  point group:

     freq (   1-   3) =        -15.9  [cm-1]   --> T_2  G_15 P_4   I+R
     freq (   4-   6) =        254.0  [cm-1]   --> T_2  G_15 P_4   I+R

     Calculation of q =    0.5000000  -0.5000000   0.5000000

     Subspace diagonalization in iterative solution of the eigenvalue problem:
     a serial algorithm will be used

 
     Parallelization info
     --------------------
     sticks:   dense  smooth     PW     G-vecs:    dense   smooth      PW
     Min         323     160     52                10954     3863     719
     Max         324     161     53                10959     3868     723
     Sum        2587    1285    421                87651    30923    5769
 
     Using Slab Decomposition
 

     Title: 
     default                                                                    


     bravais-lattice index     =            2
     lattice parameter (alat)  =      10.8615  a.u.
     unit-cell volume          =     320.3354 (a.u.)^3
     number of atoms/cell      =            2
     number of atomic types    =            2
     number of electrons       =        18.00
     number of Kohn-Sham states=            9
     kinetic-energy cutoff     =      80.0000  Ry
     charge density cutoff     =     640.0000  Ry
     Exchange-correlation= PBE
                           (   1   4   3   4   0   0   0)

     celldm(1)=  10.861462  celldm(2)=   0.000000  celldm(3)=   0.000000
     celldm(4)=   0.000000  celldm(5)=   0.000000  celldm(6)=   0.000000

     crystal axes: (cart. coord. in units of alat)
               a(1) = (  -0.500000   0.000000   0.500000 )  
               a(2) = (   0.000000   0.500000   0.500000 )  
               a(3) = (  -0.500000   0.500000   0.000000 )  

     reciprocal axes: (cart. coord. in units 2 pi/alat)
               b(1) = ( -1.000000 -1.000000  1.000000 )  
               b(2) = (  1.000000  1.000000  1.000000 )  
               b(3) = ( -1.000000  1.000000 -1.000000 )  


     PseudoPot. # 1 for Ga read from file:
     ./Ga.pbe-dn-kjpaw_psl.1.0.0.UPF
     MD5 check sum: 9ec968fb6aa164ad922e5aaa76dd79f0
     Pseudo is Projector augmented-wave + core cor, Zval = 13.0
     Generated using &quot;atomic&quot; code by A. Dal Corso  v.6.3
     Shape of augmentation charge: PSQ
     Using radial grid of 1205 points,  6 beta functions with: 
                l(1) =   0
                l(2) =   0
                l(3) =   1
                l(4) =   1
                l(5) =   2
                l(6) =   2
     Q(r) pseudized with 0 coefficients 


     PseudoPot. # 2 for As read from file:
     ./As.pbe-n-kjpaw_psl.1.0.0.UPF
     MD5 check sum: 21b474db91924651be503153fb2dbf55
     Pseudo is Projector augmented-wave + core cor, Zval =  5.0
     Generated using &quot;atomic&quot; code by A. Dal Corso  v.6.3
     Shape of augmentation charge: PSQ
     Using radial grid of 1209 points,  4 beta functions with: 
                l(1) =   0
                l(2) =   0
                l(3) =   1
                l(4) =   1
     Q(r) pseudized with 0 coefficients 


     atomic species   valence    mass     pseudopotential
        Ga            13.00    69.72300     Ga( 1.00)
        As             5.00    74.92159     As( 1.00)

     24 Sym. Ops. (no inversion) found



   Cartesian axes

     site n.     atom                  positions (alat units)
         1           Ga  tau(   1) = (   0.0000000   0.0000000   0.0000000  )
         2           As  tau(   2) = (   0.2500000   0.2500000   0.2500000  )

     number of k points=   130

     Number of k-points >= 100: set verbosity='high' to print them.

     Dense  grid:    87651 G-vectors     FFT dimensions: (  64,  64,  64)

     Smooth grid:    30923 G-vectors     FFT dimensions: (  45,  45,  45)

     Estimated max dynamical RAM per process >      39.66 MB

     Estimated total dynamical RAM >     317.27 MB

     The potential is recalculated from file :
     ./_ph0/GaAs.save/charge-density

     Starting wfcs are   13 atomic wfcs
     Checking if some PAW data can be deallocated... 

     Band Structure Calculation
     Davidson diagonalization with overlap

     ethr =  5.56E-11,  avg # of iterations = 27.8

     total cpu time spent up to now is        7.8 secs

     End of band structure calculation

     Number of k-points >= 100: set verbosity='high' to print the bands.

     highest occupied level (ev):     6.2984

     Writing config to output data dir ./_ph0/GaAs.save/

     default                                                                    

     bravais-lattice index     =            2
     lattice parameter (alat)  =      10.8615  a.u.
     unit-cell volume          =     320.3354 (a.u.)^3
     number of atoms/cell      =            2
     number of atomic types    =            2
     kinetic-energy cut-off    =      80.0000  Ry
     charge density cut-off    =     640.0000  Ry
     convergence threshold     =      1.0E-14
     beta                      =       0.7000
     number of iterations used =            4
     Exchange-correlation= PBE
                           (   1   4   3   4   0   0   0)


     celldm(1)=   10.86146  celldm(2)=    0.00000  celldm(3)=    0.00000
     celldm(4)=    0.00000  celldm(5)=    0.00000  celldm(6)=    0.00000

     crystal axes: (cart. coord. in units of alat)
               a(1) = ( -0.5000  0.0000  0.5000 )  
               a(2) = (  0.0000  0.5000  0.5000 )  
               a(3) = ( -0.5000  0.5000  0.0000 )  

     reciprocal axes: (cart. coord. in units 2 pi/alat)
               b(1) = ( -1.0000 -1.0000  1.0000 )  
               b(2) = (  1.0000  1.0000  1.0000 )  
               b(3) = ( -1.0000  1.0000 -1.0000 )  


     Atoms inside the unit cell: 

     Cartesian axes

     site n.  atom      mass           positions (alat units)
        1     Ga  69.7230   tau(    1) = (    0.00000    0.00000    0.00000  )
        2     As  74.9216   tau(    2) = (    0.25000    0.25000    0.25000  )

     Computing dynamical matrix for 
                    q = (   0.5000000  -0.5000000   0.5000000 )
 
      7 Sym.Ops. (with q -> -q+G )


     G cutoff = 1912.4796  (  10955 G-vectors)     FFT grid: ( 64, 64, 64)
     G cutoff =  956.2398  (   3868 G-vectors)  smooth grid: ( 45, 45, 45)
     number of k points=   130

     PseudoPot. # 1 for Ga read from file:
     ./Ga.pbe-dn-kjpaw_psl.1.0.0.UPF
     MD5 check sum: 9ec968fb6aa164ad922e5aaa76dd79f0
     Pseudo is Projector augmented-wave + core cor, Zval = 13.0
     Generated using &quot;atomic&quot; code by A. Dal Corso  v.6.3
     Shape of augmentation charge: PSQ
     Using radial grid of 1205 points,  6 beta functions with: 
                l(1) =   0
                l(2) =   0
                l(3) =   1
                l(4) =   1
                l(5) =   2
                l(6) =   2
     Q(r) pseudized with 0 coefficients 


     PseudoPot. # 2 for As read from file:
     ./As.pbe-n-kjpaw_psl.1.0.0.UPF
     MD5 check sum: 21b474db91924651be503153fb2dbf55
     Pseudo is Projector augmented-wave + core cor, Zval =  5.0
     Generated using &quot;atomic&quot; code by A. Dal Corso  v.6.3
     Shape of augmentation charge: PSQ
     Using radial grid of 1209 points,  4 beta functions with: 
                l(1) =   0
                l(2) =   0
                l(3) =   1
                l(4) =   1
     Q(r) pseudized with 0 coefficients 


     Mode symmetry, C_3v (3m)   point group:


     Atomic displacements:
     There are    4 irreducible representations

     Representation     1      1 modes -  To be done

     Representation     2      1 modes -  To be done

     Representation     3      2 modes -  To be done

     Representation     4      2 modes -  To be done



     Alpha used in Ewald sum =   2.8000
     PHONON       :   1m44.13s CPU   1m46.59s WALL



     Representation #   1 mode #   1

     Self-consistent Calculation

      iter #   1 total cpu time :   108.8 secs   av.it.:  11.4
      thresh= 1.000E-02 alpha_mix =  0.700 |ddv_scf|^2 =  6.085E-05

      iter #   2 total cpu time :   111.5 secs   av.it.:  15.2
      thresh= 7.801E-04 alpha_mix =  0.700 |ddv_scf|^2 =  1.264E-04

      iter #   3 total cpu time :   114.0 secs   av.it.:  13.9
      thresh= 1.124E-03 alpha_mix =  0.700 |ddv_scf|^2 =  9.837E-07

      iter #   4 total cpu time :   116.7 secs   av.it.:  15.7
      thresh= 9.918E-05 alpha_mix =  0.700 |ddv_scf|^2 =  1.252E-07

      iter #   5 total cpu time :   119.3 secs   av.it.:  14.6
      thresh= 3.538E-05 alpha_mix =  0.700 |ddv_scf|^2 =  1.250E-08

      iter #   6 total cpu time :   122.1 secs   av.it.:  16.5
      thresh= 1.118E-05 alpha_mix =  0.700 |ddv_scf|^2 =  5.540E-09

      iter #   7 total cpu time :   124.9 secs   av.it.:  16.4
      thresh= 7.443E-06 alpha_mix =  0.700 |ddv_scf|^2 =  5.287E-10

      iter #   8 total cpu time :   127.8 secs   av.it.:  17.1
      thresh= 2.299E-06 alpha_mix =  0.700 |ddv_scf|^2 =  1.553E-11

      iter #   9 total cpu time :   130.7 secs   av.it.:  17.1
      thresh= 3.940E-07 alpha_mix =  0.700 |ddv_scf|^2 =  1.486E-12

      iter #  10 total cpu time :   133.6 secs   av.it.:  17.1
      thresh= 1.219E-07 alpha_mix =  0.700 |ddv_scf|^2 =  3.993E-13

      iter #  11 total cpu time :   136.1 secs   av.it.:  14.3
      thresh= 6.319E-08 alpha_mix =  0.700 |ddv_scf|^2 =  4.748E-15

     End of self-consistent calculation

     Convergence has been achieved 


     Representation #   2 mode #   2

     Self-consistent Calculation

      iter #   1 total cpu time :   137.7 secs   av.it.:   6.4
      thresh= 1.000E-02 alpha_mix =  0.700 |ddv_scf|^2 =  7.471E-06

      iter #   2 total cpu time :   140.4 secs   av.it.:  15.0
      thresh= 2.733E-04 alpha_mix =  0.700 |ddv_scf|^2 =  1.911E-05

      iter #   3 total cpu time :   142.9 secs   av.it.:  13.8
      thresh= 4.371E-04 alpha_mix =  0.700 |ddv_scf|^2 =  2.106E-08

      iter #   4 total cpu time :   145.6 secs   av.it.:  15.9
      thresh= 1.451E-05 alpha_mix =  0.700 |ddv_scf|^2 =  1.865E-09

      iter #   5 total cpu time :   148.2 secs   av.it.:  14.2
      thresh= 4.318E-06 alpha_mix =  0.700 |ddv_scf|^2 =  9.624E-11

      iter #   6 total cpu time :   151.1 secs   av.it.:  17.3
      thresh= 9.810E-07 alpha_mix =  0.700 |ddv_scf|^2 =  9.491E-12

      iter #   7 total cpu time :   154.0 secs   av.it.:  17.1
      thresh= 3.081E-07 alpha_mix =  0.700 |ddv_scf|^2 =  4.559E-13

      iter #   8 total cpu time :   156.7 secs   av.it.:  15.7
      thresh= 6.752E-08 alpha_mix =  0.700 |ddv_scf|^2 =  1.686E-14

      iter #   9 total cpu time :   159.5 secs   av.it.:  16.8
      thresh= 1.298E-08 alpha_mix =  0.700 |ddv_scf|^2 =  5.228E-16

     End of self-consistent calculation

     Convergence has been achieved 


     Representation #   3 modes #   3   4

     Self-consistent Calculation

      iter #   1 total cpu time :   162.6 secs   av.it.:   6.2
      thresh= 1.000E-02 alpha_mix =  0.700 |ddv_scf|^2 =  2.478E-08

      iter #   2 total cpu time :   168.2 secs   av.it.:  16.8
      thresh= 1.574E-05 alpha_mix =  0.700 |ddv_scf|^2 =  1.442E-09

      iter #   3 total cpu time :   174.0 secs   av.it.:  17.0
      thresh= 3.798E-06 alpha_mix =  0.700 |ddv_scf|^2 =  1.080E-10

      iter #   4 total cpu time :   179.6 secs   av.it.:  16.4
      thresh= 1.039E-06 alpha_mix =  0.700 |ddv_scf|^2 =  1.109E-12

      iter #   5 total cpu time :   185.5 secs   av.it.:  17.8
      thresh= 1.053E-07 alpha_mix =  0.700 |ddv_scf|^2 =  2.730E-14

      iter #   6 total cpu time :   191.1 secs   av.it.:  16.4
      thresh= 1.652E-08 alpha_mix =  0.700 |ddv_scf|^2 =  6.466E-16

     End of self-consistent calculation

     Convergence has been achieved 


     Representation #   4 modes #   5   6

     Self-consistent Calculation

      iter #   1 total cpu time :   195.4 secs   av.it.:  11.6
      thresh= 1.000E-02 alpha_mix =  0.700 |ddv_scf|^2 =  1.680E-06

      iter #   2 total cpu time :   201.2 secs   av.it.:  17.3
      thresh= 1.296E-04 alpha_mix =  0.700 |ddv_scf|^2 =  2.349E-08

      iter #   3 total cpu time :   207.3 secs   av.it.:  18.5
      thresh= 1.533E-05 alpha_mix =  0.700 |ddv_scf|^2 =  9.402E-09

      iter #   4 total cpu time :   212.9 secs   av.it.:  16.6
      thresh= 9.697E-06 alpha_mix =  0.700 |ddv_scf|^2 =  3.294E-09

      iter #   5 total cpu time :   218.8 secs   av.it.:  17.6
      thresh= 5.739E-06 alpha_mix =  0.700 |ddv_scf|^2 =  4.730E-11

      iter #   6 total cpu time :   224.7 secs   av.it.:  17.8
      thresh= 6.878E-07 alpha_mix =  0.700 |ddv_scf|^2 =  1.290E-13

      iter #   7 total cpu time :   230.4 secs   av.it.:  17.0
      thresh= 3.592E-08 alpha_mix =  0.700 |ddv_scf|^2 =  1.233E-14

      iter #   8 total cpu time :   236.1 secs   av.it.:  17.1
      thresh= 1.110E-08 alpha_mix =  0.700 |ddv_scf|^2 =  3.831E-17

     End of self-consistent calculation

     Convergence has been achieved 
 
     Number of q in the star =    4
     List of q in the star:
          1   0.500000000  -0.500000000   0.500000000
          2  -0.500000000   0.500000000   0.500000000
          3   0.500000000   0.500000000  -0.500000000
          4  -0.500000000  -0.500000000  -0.500000000

     Diagonalizing the dynamical matrix

     q = (    0.500000000  -0.500000000   0.500000000 ) 

 **************************************************************************
     freq (    1) =       1.828238 [THz] =      60.983459 [cm-1]
     freq (    2) =       1.828238 [THz] =      60.983459 [cm-1]
     freq (    3) =       5.890187 [THz] =     196.475500 [cm-1]
     freq (    4) =       6.588789 [THz] =     219.778332 [cm-1]
     freq (    5) =       7.330733 [THz] =     244.526927 [cm-1]
     freq (    6) =       7.330733 [THz] =     244.526927 [cm-1]
 **************************************************************************

     Mode symmetry, C_3v (3m)   point group:

     freq (   1-   2) =         61.0  [cm-1]   --> E    L_3           
     freq (   3-   3) =        196.5  [cm-1]   --> A_1  L_1           
     freq (   4-   4) =        219.8  [cm-1]   --> A_1  L_1           
     freq (   5-   6) =        244.5  [cm-1]   --> E    L_3           

     Calculation of q =    0.0000000  -1.0000000   0.0000000
 
     Parallelization info
     --------------------
     sticks:   dense  smooth     PW     G-vecs:    dense   smooth      PW
     Min         323     160     52                10954     3863     719
     Max         324     161     53                10959     3868     723
     Sum        2587    1285    421                87651    30923    5769
 
     Using Slab Decomposition
 

     Title: 
     default                                                                    


     bravais-lattice index     =            2
     lattice parameter (alat)  =      10.8615  a.u.
     unit-cell volume          =     320.3354 (a.u.)^3
     number of atoms/cell      =            2
     number of atomic types    =            2
     number of electrons       =        18.00
     number of Kohn-Sham states=            9
     kinetic-energy cutoff     =      80.0000  Ry
     charge density cutoff     =     640.0000  Ry
     Exchange-correlation= PBE
                           (   1   4   3   4   0   0   0)

     celldm(1)=  10.861462  celldm(2)=   0.000000  celldm(3)=   0.000000
     celldm(4)=   0.000000  celldm(5)=   0.000000  celldm(6)=   0.000000

     crystal axes: (cart. coord. in units of alat)
               a(1) = (  -0.500000   0.000000   0.500000 )  
               a(2) = (   0.000000   0.500000   0.500000 )  
               a(3) = (  -0.500000   0.500000   0.000000 )  

     reciprocal axes: (cart. coord. in units 2 pi/alat)
               b(1) = ( -1.000000 -1.000000  1.000000 )  
               b(2) = (  1.000000  1.000000  1.000000 )  
               b(3) = ( -1.000000  1.000000 -1.000000 )  


     PseudoPot. # 1 for Ga read from file:
     ./Ga.pbe-dn-kjpaw_psl.1.0.0.UPF
     MD5 check sum: 9ec968fb6aa164ad922e5aaa76dd79f0
     Pseudo is Projector augmented-wave + core cor, Zval = 13.0
     Generated using &quot;atomic&quot; code by A. Dal Corso  v.6.3
     Shape of augmentation charge: PSQ
     Using radial grid of 1205 points,  6 beta functions with: 
                l(1) =   0
                l(2) =   0
                l(3) =   1
                l(4) =   1
                l(5) =   2
                l(6) =   2
     Q(r) pseudized with 0 coefficients 


     PseudoPot. # 2 for As read from file:
     ./As.pbe-n-kjpaw_psl.1.0.0.UPF
     MD5 check sum: 21b474db91924651be503153fb2dbf55
     Pseudo is Projector augmented-wave + core cor, Zval =  5.0
     Generated using &quot;atomic&quot; code by A. Dal Corso  v.6.3
     Shape of augmentation charge: PSQ
     Using radial grid of 1209 points,  4 beta functions with: 
                l(1) =   0
                l(2) =   0
                l(3) =   1
                l(4) =   1
     Q(r) pseudized with 0 coefficients 


     atomic species   valence    mass     pseudopotential
        Ga            13.00    69.72300     Ga( 1.00)
        As             5.00    74.92159     As( 1.00)

     24 Sym. Ops. (no inversion) found



   Cartesian axes

     site n.     atom                  positions (alat units)
         1           Ga  tau(   1) = (   0.0000000   0.0000000   0.0000000  )
         2           As  tau(   2) = (   0.2500000   0.2500000   0.2500000  )

     number of k points=   118

     Number of k-points >= 100: set verbosity='high' to print them.

     Dense  grid:    87651 G-vectors     FFT dimensions: (  64,  64,  64)

     Smooth grid:    30923 G-vectors     FFT dimensions: (  45,  45,  45)

     Estimated max dynamical RAM per process >      39.67 MB

     Estimated total dynamical RAM >     317.37 MB

     The potential is recalculated from file :
     ./_ph0/GaAs.save/charge-density

     Starting wfcs are   13 atomic wfcs
     Checking if some PAW data can be deallocated... 

     Band Structure Calculation
     Davidson diagonalization with overlap

     ethr =  5.56E-11,  avg # of iterations = 27.8

     total cpu time spent up to now is       14.8 secs

     End of band structure calculation

     Number of k-points >= 100: set verbosity='high' to print the bands.

     highest occupied level (ev):     6.2984

     Writing config to output data dir ./_ph0/GaAs.save/

     default                                                                    

     bravais-lattice index     =            2
     lattice parameter (alat)  =      10.8615  a.u.
     unit-cell volume          =     320.3354 (a.u.)^3
     number of atoms/cell      =            2
     number of atomic types    =            2
     kinetic-energy cut-off    =      80.0000  Ry
     charge density cut-off    =     640.0000  Ry
     convergence threshold     =      1.0E-14
     beta                      =       0.7000
     number of iterations used =            4
     Exchange-correlation= PBE
                           (   1   4   3   4   0   0   0)


     celldm(1)=   10.86146  celldm(2)=    0.00000  celldm(3)=    0.00000
     celldm(4)=    0.00000  celldm(5)=    0.00000  celldm(6)=    0.00000

     crystal axes: (cart. coord. in units of alat)
               a(1) = ( -0.5000  0.0000  0.5000 )  
               a(2) = (  0.0000  0.5000  0.5000 )  
               a(3) = ( -0.5000  0.5000  0.0000 )  

     reciprocal axes: (cart. coord. in units 2 pi/alat)
               b(1) = ( -1.0000 -1.0000  1.0000 )  
               b(2) = (  1.0000  1.0000  1.0000 )  
               b(3) = ( -1.0000  1.0000 -1.0000 )  


     Atoms inside the unit cell: 

     Cartesian axes

     site n.  atom      mass           positions (alat units)
        1     Ga  69.7230   tau(    1) = (    0.00000    0.00000    0.00000  )
        2     As  74.9216   tau(    2) = (    0.25000    0.25000    0.25000  )

     Computing dynamical matrix for 
                    q = (   0.0000000  -1.0000000   0.0000000 )
 
      9 Sym.Ops. (with q -> -q+G )


     G cutoff = 1912.4796  (  10955 G-vectors)     FFT grid: ( 64, 64, 64)
     G cutoff =  956.2398  (   3868 G-vectors)  smooth grid: ( 45, 45, 45)
     number of k points=   118

     PseudoPot. # 1 for Ga read from file:
     ./Ga.pbe-dn-kjpaw_psl.1.0.0.UPF
     MD5 check sum: 9ec968fb6aa164ad922e5aaa76dd79f0
     Pseudo is Projector augmented-wave + core cor, Zval = 13.0
     Generated using &quot;atomic&quot; code by A. Dal Corso  v.6.3
     Shape of augmentation charge: PSQ
     Using radial grid of 1205 points,  6 beta functions with: 
                l(1) =   0
                l(2) =   0
                l(3) =   1
                l(4) =   1
                l(5) =   2
                l(6) =   2
     Q(r) pseudized with 0 coefficients 


     PseudoPot. # 2 for As read from file:
     ./As.pbe-n-kjpaw_psl.1.0.0.UPF
     MD5 check sum: 21b474db91924651be503153fb2dbf55
     Pseudo is Projector augmented-wave + core cor, Zval =  5.0
     Generated using &quot;atomic&quot; code by A. Dal Corso  v.6.3
     Shape of augmentation charge: PSQ
     Using radial grid of 1209 points,  4 beta functions with: 
                l(1) =   0
                l(2) =   0
                l(3) =   1
                l(4) =   1
     Q(r) pseudized with 0 coefficients 


     Mode symmetry, D_2d (-42m) point group:


     Atomic displacements:
     There are    4 irreducible representations

     Representation     1      1 modes -  To be done

     Representation     2      1 modes -  To be done

     Representation     3      2 modes -  To be done

     Representation     4      2 modes -  To be done



     Alpha used in Ewald sum =   2.8000
     PHONON       :   3m59.45s CPU   4m 4.79s WALL



     Representation #   1 mode #   1

     Self-consistent Calculation

      iter #   1 total cpu time :   246.2 secs   av.it.:   6.1
      thresh= 1.000E-02 alpha_mix =  0.700 |ddv_scf|^2 =  3.234E-06

      iter #   2 total cpu time :   248.6 secs   av.it.:  14.5
      thresh= 1.798E-04 alpha_mix =  0.700 |ddv_scf|^2 =  5.009E-06

      iter #   3 total cpu time :   250.9 secs   av.it.:  13.6
      thresh= 2.238E-04 alpha_mix =  0.700 |ddv_scf|^2 =  5.803E-09

      iter #   4 total cpu time :   253.6 secs   av.it.:  17.1
      thresh= 7.618E-06 alpha_mix =  0.700 |ddv_scf|^2 =  7.423E-10

      iter #   5 total cpu time :   256.2 secs   av.it.:  16.6
      thresh= 2.725E-06 alpha_mix =  0.700 |ddv_scf|^2 =  6.122E-12

      iter #   6 total cpu time :   258.7 secs   av.it.:  15.9
      thresh= 2.474E-07 alpha_mix =  0.700 |ddv_scf|^2 =  2.865E-13

      iter #   7 total cpu time :   261.4 secs   av.it.:  17.0
      thresh= 5.353E-08 alpha_mix =  0.700 |ddv_scf|^2 =  1.730E-14

      iter #   8 total cpu time :   264.0 secs   av.it.:  16.4
      thresh= 1.315E-08 alpha_mix =  0.700 |ddv_scf|^2 =  2.643E-16

     End of self-consistent calculation

     Convergence has been achieved 


     Representation #   2 mode #   2

     Self-consistent Calculation

      iter #   1 total cpu time :   266.0 secs   av.it.:  10.7
      thresh= 1.000E-02 alpha_mix =  0.700 |ddv_scf|^2 =  2.367E-05

      iter #   2 total cpu time :   268.4 secs   av.it.:  14.9
      thresh= 4.866E-04 alpha_mix =  0.700 |ddv_scf|^2 =  1.297E-05

      iter #   3 total cpu time :   270.8 secs   av.it.:  14.2
      thresh= 3.601E-04 alpha_mix =  0.700 |ddv_scf|^2 =  9.785E-07

      iter #   4 total cpu time :   273.1 secs   av.it.:  13.8
      thresh= 9.892E-05 alpha_mix =  0.700 |ddv_scf|^2 =  2.706E-08

      iter #   5 total cpu time :   275.4 secs   av.it.:  14.4
      thresh= 1.645E-05 alpha_mix =  0.700 |ddv_scf|^2 =  1.047E-08

      iter #   6 total cpu time :   277.9 secs   av.it.:  15.0
      thresh= 1.023E-05 alpha_mix =  0.700 |ddv_scf|^2 =  4.670E-12

      iter #   7 total cpu time :   280.7 secs   av.it.:  15.1
      thresh= 2.161E-07 alpha_mix =  0.700 |ddv_scf|^2 =  3.558E-13

      iter #   8 total cpu time :   283.2 secs   av.it.:  14.9
      thresh= 5.965E-08 alpha_mix =  0.700 |ddv_scf|^2 =  1.691E-15

     End of self-consistent calculation

     Convergence has been achieved 


     Representation #   3 modes #   3   4

     Self-consistent Calculation

      iter #   1 total cpu time :   286.1 secs   av.it.:   6.1
      thresh= 1.000E-02 alpha_mix =  0.700 |ddv_scf|^2 =  6.399E-08

      iter #   2 total cpu time :   291.3 secs   av.it.:  16.4
      thresh= 2.530E-05 alpha_mix =  0.700 |ddv_scf|^2 =  1.052E-08

      iter #   3 total cpu time :   296.6 secs   av.it.:  16.3
      thresh= 1.026E-05 alpha_mix =  0.700 |ddv_scf|^2 =  2.013E-10

      iter #   4 total cpu time :   301.7 secs   av.it.:  15.8
      thresh= 1.419E-06 alpha_mix =  0.700 |ddv_scf|^2 =  1.674E-12

      iter #   5 total cpu time :   306.8 secs   av.it.:  15.7
      thresh= 1.294E-07 alpha_mix =  0.700 |ddv_scf|^2 =  5.537E-14

      iter #   6 total cpu time :   312.1 secs   av.it.:  16.4
      thresh= 2.353E-08 alpha_mix =  0.700 |ddv_scf|^2 =  2.060E-16

     End of self-consistent calculation

     Convergence has been achieved 


     Representation #   4 modes #   5   6

     Self-consistent Calculation

      iter #   1 total cpu time :   316.1 secs   av.it.:  11.2
      thresh= 1.000E-02 alpha_mix =  0.700 |ddv_scf|^2 =  2.412E-06

      iter #   2 total cpu time :   321.5 secs   av.it.:  16.8
      thresh= 1.553E-04 alpha_mix =  0.700 |ddv_scf|^2 =  2.230E-07

      iter #   3 total cpu time :   326.9 secs   av.it.:  17.1
      thresh= 4.723E-05 alpha_mix =  0.700 |ddv_scf|^2 =  1.795E-08

      iter #   4 total cpu time :   332.2 secs   av.it.:  16.4
      thresh= 1.340E-05 alpha_mix =  0.700 |ddv_scf|^2 =  3.511E-09

      iter #   5 total cpu time :   337.6 secs   av.it.:  17.2
      thresh= 5.925E-06 alpha_mix =  0.700 |ddv_scf|^2 =  2.999E-11

      iter #   6 total cpu time :   343.1 secs   av.it.:  17.4
      thresh= 5.477E-07 alpha_mix =  0.700 |ddv_scf|^2 =  1.018E-13

      iter #   7 total cpu time :   348.2 secs   av.it.:  15.7
      thresh= 3.190E-08 alpha_mix =  0.700 |ddv_scf|^2 =  1.433E-15

     End of self-consistent calculation

     Convergence has been achieved 
 
     Number of q in the star =    3
     List of q in the star:
          1   0.000000000  -1.000000000   0.000000000
          2   0.000000000   0.000000000  -1.000000000
          3  -1.000000000   0.000000000   0.000000000

     Diagonalizing the dynamical matrix

     q = (    0.000000000  -1.000000000   0.000000000 ) 

 **************************************************************************
     freq (    1) =       2.416954 [THz] =      80.620895 [cm-1]
     freq (    2) =       2.416954 [THz] =      80.620895 [cm-1]
     freq (    3) =       6.194278 [THz] =     206.618888 [cm-1]
     freq (    4) =       6.783115 [THz] =     226.260370 [cm-1]
     freq (    5) =       7.099924 [THz] =     236.827986 [cm-1]
     freq (    6) =       7.099924 [THz] =     236.827986 [cm-1]
 **************************************************************************

     Mode symmetry, D_2d (-42m) point group:

     freq (   1-   2) =         80.6  [cm-1]   --> E    X_5  W_3      
     freq (   3-   3) =        206.6  [cm-1]   --> A_1  X_1  W_1      
     freq (   4-   4) =        226.3  [cm-1]   --> B_2  X_3  W_2      
     freq (   5-   6) =        236.8  [cm-1]   --> E    X_5  W_3      
 
     init_run     :      0.49s CPU      0.50s WALL (       2 calls)
     electrons    :     14.08s CPU     14.31s WALL (       2 calls)

     Called by init_run:
     wfcinit      :      0.00s CPU      0.00s WALL (       2 calls)
     potinit      :      0.10s CPU      0.10s WALL (       2 calls)
     hinit0       :      0.15s CPU      0.15s WALL (       2 calls)

     Called by electrons:
     c_bands      :     14.08s CPU     14.31s WALL (       2 calls)
     v_of_rho     :      0.03s CPU      0.03s WALL (       3 calls)
     newd         :      0.06s CPU      0.08s WALL (       3 calls)
     PAW_pot      :      0.11s CPU      0.12s WALL (       3 calls)

     Called by c_bands:
     init_us_2    :      0.77s CPU      0.81s WALL (    6730 calls)
     init_us_2:cp :      0.76s CPU      0.80s WALL (    6730 calls)
     cegterg      :     13.19s CPU     13.37s WALL (     492 calls)

     Called by *egterg:
     cdiaghg      :      1.24s CPU      1.26s WALL (    7144 calls)
     h_psi        :    228.10s CPU    232.50s WALL (  172418 calls)
     s_psi        :      6.42s CPU      6.55s WALL (  344712 calls)
     g_psi        :      0.07s CPU      0.07s WALL (    6896 calls)

     Called by h_psi:
     h_psi:calbec :      8.19s CPU      8.35s WALL (  172418 calls)
     vloc_psi     :    215.13s CPU    219.28s WALL (  172418 calls)
     add_vuspsi   :      3.45s CPU      3.52s WALL (  172418 calls)

     General routines
     calbec       :     14.56s CPU     14.88s WALL (  367192 calls)
     fft          :      1.18s CPU      1.36s WALL (    2963 calls)
     ffts         :      0.21s CPU      0.23s WALL (    1496 calls)
     fftw         :    218.46s CPU    223.37s WALL ( 2590905 calls)
     interpolate  :      0.14s CPU      0.17s WALL (     326 calls)
     davcio       :      1.43s CPU      1.88s WALL (   38053 calls)
 
     Parallel routines
 
     PHONON       :   5m40.51s CPU   5m48.28s WALL

     INITIALIZATION: 
     phq_setup    :      0.07s CPU      0.09s WALL (       3 calls)
     phq_init     :      4.15s CPU      4.22s WALL (       3 calls)
 
     phq_init     :      4.15s CPU      4.22s WALL (       3 calls)
     set_drhoc    :      1.16s CPU      1.16s WALL (       9 calls)
     init_vloc    :      0.02s CPU      0.02s WALL (       3 calls)
     init_us_1    :      0.16s CPU      0.17s WALL (       3 calls)
     init_us_2    :      0.77s CPU      0.81s WALL (    6730 calls)
     newd         :      0.06s CPU      0.08s WALL (       3 calls)
     dvanqq       :      0.64s CPU      0.64s WALL (       3 calls)
     drho         :      1.86s CPU      1.91s WALL (       3 calls)
 
     DYNAMICAL MATRIX:
     dynmat0      :      0.95s CPU      0.96s WALL (       3 calls)
     phqscf       :    278.41s CPU    284.70s WALL (       3 calls)
     dynmatrix    :      0.00s CPU      0.00s WALL (       3 calls)
 
     phqscf       :    278.41s CPU    284.70s WALL (       3 calls)
     solve_linter :    277.40s CPU    283.63s WALL (      10 calls)
     drhodv       :      0.28s CPU      0.29s WALL (      10 calls)
 
     dynmat0      :      0.95s CPU      0.96s WALL (       3 calls)
     dynmat_us    :      0.13s CPU      0.14s WALL (       3 calls)
     d2ionq       :      0.01s CPU      0.01s WALL (       3 calls)
     dynmatcc     :      0.81s CPU      0.81s WALL (       3 calls)
 
     dynmat_us    :      0.13s CPU      0.14s WALL (       3 calls)
     addusdynmat  :      0.00s CPU      0.00s WALL (       3 calls)
 
     phqscf       :    278.41s CPU    284.70s WALL (       3 calls)
     solve_linter :    277.40s CPU    283.63s WALL (      10 calls)
 
     solve_linter :    277.40s CPU    283.63s WALL (      10 calls)
     dvqpsi_us    :      2.35s CPU      2.48s WALL (    1092 calls)
     sth_kernel   :    268.12s CPU    274.21s WALL (      83 calls)
     apply_dpot_b :     10.98s CPU     11.55s WALL (    6333 calls)
     ortho        :      0.92s CPU      0.95s WALL (    7425 calls)
     cgsolve      :    245.57s CPU    250.36s WALL (    7425 calls)
     incdrhoscf   :     14.11s CPU     14.81s WALL (    7425 calls)
     addusddens   :      4.18s CPU      4.19s WALL (      85 calls)
     dv_of_drho   :      0.86s CPU      0.87s WALL (     153 calls)
     mix_pot      :      0.21s CPU      0.60s WALL (      83 calls)
     psymdvscf    :      8.91s CPU      8.94s WALL (      75 calls)
     newdq        :      5.28s CPU      5.28s WALL (      83 calls)
     adddvscf     :      0.34s CPU      0.35s WALL (    6333 calls)
     drhodvus     :      0.01s CPU      0.01s WALL (      10 calls)
 
     dvqpsi_us    :      2.35s CPU      2.48s WALL (    1092 calls)
     dvqpsi_us_on :      0.32s CPU      0.33s WALL (    1092 calls)
 
     cgsolve      :    245.57s CPU    250.36s WALL (    7425 calls)
     ch_psi       :    238.86s CPU    243.50s WALL (  164782 calls)
 
     ch_psi       :    238.86s CPU    243.50s WALL (  164782 calls)
     h_psi        :    228.10s CPU    232.50s WALL (  172418 calls)
     last         :     16.55s CPU     16.88s WALL (  164782 calls)
 
     h_psi        :    228.10s CPU    232.50s WALL (  172418 calls)
     add_vuspsi   :      3.45s CPU      3.52s WALL (  172418 calls)
 
     incdrhoscf   :     14.11s CPU     14.81s WALL (    7425 calls)
     addusdbec    :      0.52s CPU      0.54s WALL (    8343 calls)
 
     drhodvus     :      0.01s CPU      0.01s WALL (      10 calls)
 
      General routines
     calbec       :     14.56s CPU     14.88s WALL (  367192 calls)
     fft          :      1.18s CPU      1.36s WALL (    2963 calls)
     ffts         :      0.21s CPU      0.23s WALL (    1496 calls)
     fftw         :    218.46s CPU    223.37s WALL ( 2590905 calls)
     davcio       :      1.43s CPU      1.88s WALL (   38053 calls)
     write_rec    :      0.07s CPU      0.27s WALL (      93 calls)
 
 
     PHONON       :   5m40.51s CPU   5m48.28s WALL

 
   This run was terminated on:  15:33:11   1Dec2023            

=------------------------------------------------------------------------------=
   JOB DONE.
=------------------------------------------------------------------------------=
