
     Program PWSCF v.7.2 starts on 21Nov2024 at 19: 1:53 

     This program is part of the open-source Quantum ESPRESSO suite
     for quantum simulation of materials; please cite
         "P. Giannozzi et al., J. Phys.:Condens. Matter 21 395502 (2009);
         "P. Giannozzi et al., J. Phys.:Condens. Matter 29 465901 (2017);
         "P. Giannozzi et al., J. Chem. Phys. 152 154105 (2020);
          URL http://www.quantum-espresso.org", 
     in publications or presentations arising from this work. More details at
     http://www.quantum-espresso.org/quote

     Parallel version (MPI), running on    32 processors

     MPI processes distributed on     1 nodes
     494858 MiB available memory on the printing compute node when the environment starts
 
     Waiting for input...
     Reading input from standard input

     Current dimensions of program PWSCF are:
     Max number of different atomic species (ntypx) = 10
     Max number of k-points (npk) =  40000
     Max angular momentum in pseudopotentials (lmaxx) =  4

     Atomic positions and unit cell read from directory:
     ./C.save/
 

     IMPORTANT: XC functional enforced from input :
     Exchange-correlation= PBE
                           (   1   4   3   4   0   0   0)
     Any further DFT definition will be discarded
     Please, verify this is what you really want

     Found identity + (  0.5000 -0.5000  0.0000) symmetry
     This is a supercell, fractional translations are disabled
 
     K-points division:     npool     =       2
     R & G space division:  proc/nbgrp/npool/nimage =      16
     Subspace diagonalization in iterative solution of the eigenvalue problem:
     a serial algorithm will be used

 
     Parallelization info
     --------------------
     sticks:   dense  smooth     PW     G-vecs:    dense   smooth      PW
     Min          81      81     23                 2217     2217     354
     Max          82      82     25                 2222     2222     358
     Sum        1305    1305    385                35513    35513    5695
 
     Using Slab Decomposition
 


     bravais-lattice index     =            0
     lattice parameter (alat)  =       6.7469  a.u.
     unit-cell volume          =     307.1494 (a.u.)^3
     number of atoms/cell      =            8
     number of atomic types    =            1
     number of electrons       =        32.00
     number of Kohn-Sham states=           20
     kinetic-energy cutoff     =      90.0000  Ry
     charge density cutoff     =     360.0000  Ry
     Exchange-correlation= PBE
                           (   1   4   3   4   0   0   0)

     celldm(1)=   6.746948  celldm(2)=   0.000000  celldm(3)=   0.000000
     celldm(4)=   0.000000  celldm(5)=   0.000000  celldm(6)=   0.000000

     crystal axes: (cart. coord. in units of alat)
               a(1) = (   1.000000   0.000000   0.000000 )  
               a(2) = (   0.000000   1.000000   0.000000 )  
               a(3) = (   0.000000   0.000000   1.000063 )  

     reciprocal axes: (cart. coord. in units 2 pi/alat)
               b(1) = (  1.000000  0.000000  0.000000 )  
               b(2) = (  0.000000  1.000000  0.000000 )  
               b(3) = (  0.000000  0.000000  0.999937 )  


     PseudoPot. # 1 for C  read from file:
     ./C.pbe-n-rrkjus_psl.1.0.0.UPF
     MD5 check sum: 1fdd950c42eb37d8afe3dd2f8d12311e
     Pseudo is Ultrasoft + core correction, Zval =  4.0
     Generated using &quot;atomic&quot; code by A. Dal Corso  v.6.3MaX
     Using radial grid of 1073 points,  4 beta functions with: 
                l(1) =   0
                l(2) =   0
                l(3) =   1
                l(4) =   1
     Q(r) pseudized with 0 coefficients 


     atomic species   valence    mass     pseudopotential
        C              4.00    12.00000     C ( 1.00)

     No symmetry found


                                    s                        frac. trans.

      isym =  1     identity                                     

 cryst.   s( 1) = (     1          0          0      )
                  (     0          1          0      )
                  (     0          0          1      )

 cart.    s( 1) = (  1.0000000  0.0000000  0.0000000 )
                  (  0.0000000  1.0000000  0.0000000 )
                  (  0.0000000  0.0000000  1.0000000 )


   Cartesian axes

     site n.     atom                  positions (alat units)
         1           C   tau(   1) = (   0.2500000   0.7500000   0.2500000  )
         2           C   tau(   2) = (   0.0000000   0.0000000   0.5000000  )
         3           C   tau(   3) = (   0.2500000   0.2500000   0.7500000  )
         4           C   tau(   4) = (   0.0000000   0.5000000   0.0000000  )
         5           C   tau(   5) = (   0.7500000   0.7500000   0.7500000  )
         6           C   tau(   6) = (   0.5000000   0.0000000   0.0000000  )
         7           C   tau(   7) = (   0.7500000   0.2500000   0.2500000  )
         8           C   tau(   8) = (   0.5000000   0.5000000   0.5000000  )

   Crystallographic axes

     site n.     atom                  positions (cryst. coord.)
         1           C   tau(   1) = (  0.2500000  0.7500000  0.2499842  )
         2           C   tau(   2) = (  0.0000000  0.0000000  0.4999683  )
         3           C   tau(   3) = (  0.2500000  0.2500000  0.7499525  )
         4           C   tau(   4) = (  0.0000000  0.5000000  0.0000000  )
         5           C   tau(   5) = (  0.7500000  0.7500000  0.7499525  )
         6           C   tau(   6) = (  0.5000000  0.0000000  0.0000000  )
         7           C   tau(   7) = (  0.7500000  0.2500000  0.2499842  )
         8           C   tau(   8) = (  0.5000000  0.5000000  0.4999683  )

     number of k points=   868 (tetrahedron method)
                       cart. coord. in units 2pi/alat
        k(    1) = (   0.0000000   0.0000000   0.0000000), wk =   0.0011574
        k(    2) = (   0.0000000   0.0000000   0.0833281), wk =   0.0023148
        k(    3) = (   0.0000000   0.0000000   0.1666561), wk =   0.0023148
        k(    4) = (   0.0000000   0.0000000   0.2499842), wk =   0.0023148
        k(    5) = (   0.0000000   0.0000000   0.3333122), wk =   0.0023148
        k(    6) = (   0.0000000   0.0000000   0.4166403), wk =   0.0023148
        k(    7) = (   0.0000000   0.0000000  -0.4999683), wk =   0.0011574
        k(    8) = (   0.0000000   0.0833333   0.0000000), wk =   0.0023148
        k(    9) = (   0.0000000   0.0833333   0.0833281), wk =   0.0023148
        k(   10) = (   0.0000000   0.0833333   0.1666561), wk =   0.0023148
        k(   11) = (   0.0000000   0.0833333   0.2499842), wk =   0.0023148
        k(   12) = (   0.0000000   0.0833333   0.3333122), wk =   0.0023148
        k(   13) = (   0.0000000   0.0833333   0.4166403), wk =   0.0023148
        k(   14) = (   0.0000000   0.0833333  -0.4999683), wk =   0.0023148
        k(   15) = (   0.0000000   0.0833333  -0.4166403), wk =   0.0023148
        k(   16) = (   0.0000000   0.0833333  -0.3333122), wk =   0.0023148
        k(   17) = (   0.0000000   0.0833333  -0.2499842), wk =   0.0023148
        k(   18) = (   0.0000000   0.0833333  -0.1666561), wk =   0.0023148
        k(   19) = (   0.0000000   0.0833333  -0.0833281), wk =   0.0023148
        k(   20) = (   0.0000000   0.1666667   0.0000000), wk =   0.0023148
        k(   21) = (   0.0000000   0.1666667   0.0833281), wk =   0.0023148
        k(   22) = (   0.0000000   0.1666667   0.1666561), wk =   0.0023148
        k(   23) = (   0.0000000   0.1666667   0.2499842), wk =   0.0023148
        k(   24) = (   0.0000000   0.1666667   0.3333122), wk =   0.0023148
        k(   25) = (   0.0000000   0.1666667   0.4166403), wk =   0.0023148
        k(   26) = (   0.0000000   0.1666667  -0.4999683), wk =   0.0023148
        k(   27) = (   0.0000000   0.1666667  -0.4166403), wk =   0.0023148
        k(   28) = (   0.0000000   0.1666667  -0.3333122), wk =   0.0023148
        k(   29) = (   0.0000000   0.1666667  -0.2499842), wk =   0.0023148
        k(   30) = (   0.0000000   0.1666667  -0.1666561), wk =   0.0023148
        k(   31) = (   0.0000000   0.1666667  -0.0833281), wk =   0.0023148
        k(   32) = (   0.0000000   0.2500000   0.0000000), wk =   0.0023148
        k(   33) = (   0.0000000   0.2500000   0.0833281), wk =   0.0023148
        k(   34) = (   0.0000000   0.2500000   0.1666561), wk =   0.0023148
        k(   35) = (   0.0000000   0.2500000   0.2499842), wk =   0.0023148
        k(   36) = (   0.0000000   0.2500000   0.3333122), wk =   0.0023148
        k(   37) = (   0.0000000   0.2500000   0.4166403), wk =   0.0023148
        k(   38) = (   0.0000000   0.2500000  -0.4999683), wk =   0.0023148
        k(   39) = (   0.0000000   0.2500000  -0.4166403), wk =   0.0023148
        k(   40) = (   0.0000000   0.2500000  -0.3333122), wk =   0.0023148
        k(   41) = (   0.0000000   0.2500000  -0.2499842), wk =   0.0023148
        k(   42) = (   0.0000000   0.2500000  -0.1666561), wk =   0.0023148
        k(   43) = (   0.0000000   0.2500000  -0.0833281), wk =   0.0023148
        k(   44) = (   0.0000000   0.3333333   0.0000000), wk =   0.0023148
        k(   45) = (   0.0000000   0.3333333   0.0833281), wk =   0.0023148
        k(   46) = (   0.0000000   0.3333333   0.1666561), wk =   0.0023148
        k(   47) = (   0.0000000   0.3333333   0.2499842), wk =   0.0023148
        k(   48) = (   0.0000000   0.3333333   0.3333122), wk =   0.0023148
        k(   49) = (   0.0000000   0.3333333   0.4166403), wk =   0.0023148
        k(   50) = (   0.0000000   0.3333333  -0.4999683), wk =   0.0023148
        k(   51) = (   0.0000000   0.3333333  -0.4166403), wk =   0.0023148
        k(   52) = (   0.0000000   0.3333333  -0.3333122), wk =   0.0023148
        k(   53) = (   0.0000000   0.3333333  -0.2499842), wk =   0.0023148
        k(   54) = (   0.0000000   0.3333333  -0.1666561), wk =   0.0023148
        k(   55) = (   0.0000000   0.3333333  -0.0833281), wk =   0.0023148
        k(   56) = (   0.0000000   0.4166667   0.0000000), wk =   0.0023148
        k(   57) = (   0.0000000   0.4166667   0.0833281), wk =   0.0023148
        k(   58) = (   0.0000000   0.4166667   0.1666561), wk =   0.0023148
        k(   59) = (   0.0000000   0.4166667   0.2499842), wk =   0.0023148
        k(   60) = (   0.0000000   0.4166667   0.3333122), wk =   0.0023148
        k(   61) = (   0.0000000   0.4166667   0.4166403), wk =   0.0023148
        k(   62) = (   0.0000000   0.4166667  -0.4999683), wk =   0.0023148
        k(   63) = (   0.0000000   0.4166667  -0.4166403), wk =   0.0023148
        k(   64) = (   0.0000000   0.4166667  -0.3333122), wk =   0.0023148
        k(   65) = (   0.0000000   0.4166667  -0.2499842), wk =   0.0023148
        k(   66) = (   0.0000000   0.4166667  -0.1666561), wk =   0.0023148
        k(   67) = (   0.0000000   0.4166667  -0.0833281), wk =   0.0023148
        k(   68) = (   0.0000000  -0.5000000   0.0000000), wk =   0.0011574
        k(   69) = (   0.0000000  -0.5000000   0.0833281), wk =   0.0023148
        k(   70) = (   0.0000000  -0.5000000   0.1666561), wk =   0.0023148
        k(   71) = (   0.0000000  -0.5000000   0.2499842), wk =   0.0023148
        k(   72) = (   0.0000000  -0.5000000   0.3333122), wk =   0.0023148
        k(   73) = (   0.0000000  -0.5000000   0.4166403), wk =   0.0023148
        k(   74) = (   0.0000000  -0.5000000  -0.4999683), wk =   0.0011574
        k(   75) = (   0.0833333   0.0000000   0.0000000), wk =   0.0023148
        k(   76) = (   0.0833333   0.0000000   0.0833281), wk =   0.0023148
        k(   77) = (   0.0833333   0.0000000   0.1666561), wk =   0.0023148
        k(   78) = (   0.0833333   0.0000000   0.2499842), wk =   0.0023148
        k(   79) = (   0.0833333   0.0000000   0.3333122), wk =   0.0023148
        k(   80) = (   0.0833333   0.0000000   0.4166403), wk =   0.0023148
        k(   81) = (   0.0833333   0.0000000  -0.4999683), wk =   0.0023148
        k(   82) = (   0.0833333   0.0000000  -0.4166403), wk =   0.0023148
        k(   83) = (   0.0833333   0.0000000  -0.3333122), wk =   0.0023148
        k(   84) = (   0.0833333   0.0000000  -0.2499842), wk =   0.0023148
        k(   85) = (   0.0833333   0.0000000  -0.1666561), wk =   0.0023148
        k(   86) = (   0.0833333   0.0000000  -0.0833281), wk =   0.0023148
        k(   87) = (   0.0833333   0.0833333   0.0000000), wk =   0.0023148
        k(   88) = (   0.0833333   0.0833333   0.0833281), wk =   0.0023148
        k(   89) = (   0.0833333   0.0833333   0.1666561), wk =   0.0023148
        k(   90) = (   0.0833333   0.0833333   0.2499842), wk =   0.0023148
        k(   91) = (   0.0833333   0.0833333   0.3333122), wk =   0.0023148
        k(   92) = (   0.0833333   0.0833333   0.4166403), wk =   0.0023148
        k(   93) = (   0.0833333   0.0833333  -0.4999683), wk =   0.0023148
        k(   94) = (   0.0833333   0.0833333  -0.4166403), wk =   0.0023148
        k(   95) = (   0.0833333   0.0833333  -0.3333122), wk =   0.0023148
        k(   96) = (   0.0833333   0.0833333  -0.2499842), wk =   0.0023148
        k(   97) = (   0.0833333   0.0833333  -0.1666561), wk =   0.0023148
        k(   98) = (   0.0833333   0.0833333  -0.0833281), wk =   0.0023148
        k(   99) = (   0.0833333   0.1666667   0.0000000), wk =   0.0023148
        k(  100) = (   0.0833333   0.1666667   0.0833281), wk =   0.0023148
        k(  101) = (   0.0833333   0.1666667   0.1666561), wk =   0.0023148
        k(  102) = (   0.0833333   0.1666667   0.2499842), wk =   0.0023148
        k(  103) = (   0.0833333   0.1666667   0.3333122), wk =   0.0023148
        k(  104) = (   0.0833333   0.1666667   0.4166403), wk =   0.0023148
        k(  105) = (   0.0833333   0.1666667  -0.4999683), wk =   0.0023148
        k(  106) = (   0.0833333   0.1666667  -0.4166403), wk =   0.0023148
        k(  107) = (   0.0833333   0.1666667  -0.3333122), wk =   0.0023148
        k(  108) = (   0.0833333   0.1666667  -0.2499842), wk =   0.0023148
        k(  109) = (   0.0833333   0.1666667  -0.1666561), wk =   0.0023148
        k(  110) = (   0.0833333   0.1666667  -0.0833281), wk =   0.0023148
        k(  111) = (   0.0833333   0.2500000   0.0000000), wk =   0.0023148
        k(  112) = (   0.0833333   0.2500000   0.0833281), wk =   0.0023148
        k(  113) = (   0.0833333   0.2500000   0.1666561), wk =   0.0023148
        k(  114) = (   0.0833333   0.2500000   0.2499842), wk =   0.0023148
        k(  115) = (   0.0833333   0.2500000   0.3333122), wk =   0.0023148
        k(  116) = (   0.0833333   0.2500000   0.4166403), wk =   0.0023148
        k(  117) = (   0.0833333   0.2500000  -0.4999683), wk =   0.0023148
        k(  118) = (   0.0833333   0.2500000  -0.4166403), wk =   0.0023148
        k(  119) = (   0.0833333   0.2500000  -0.3333122), wk =   0.0023148
        k(  120) = (   0.0833333   0.2500000  -0.2499842), wk =   0.0023148
        k(  121) = (   0.0833333   0.2500000  -0.1666561), wk =   0.0023148
        k(  122) = (   0.0833333   0.2500000  -0.0833281), wk =   0.0023148
        k(  123) = (   0.0833333   0.3333333   0.0000000), wk =   0.0023148
        k(  124) = (   0.0833333   0.3333333   0.0833281), wk =   0.0023148
        k(  125) = (   0.0833333   0.3333333   0.1666561), wk =   0.0023148
        k(  126) = (   0.0833333   0.3333333   0.2499842), wk =   0.0023148
        k(  127) = (   0.0833333   0.3333333   0.3333122), wk =   0.0023148
        k(  128) = (   0.0833333   0.3333333   0.4166403), wk =   0.0023148
        k(  129) = (   0.0833333   0.3333333  -0.4999683), wk =   0.0023148
        k(  130) = (   0.0833333   0.3333333  -0.4166403), wk =   0.0023148
        k(  131) = (   0.0833333   0.3333333  -0.3333122), wk =   0.0023148
        k(  132) = (   0.0833333   0.3333333  -0.2499842), wk =   0.0023148
        k(  133) = (   0.0833333   0.3333333  -0.1666561), wk =   0.0023148
        k(  134) = (   0.0833333   0.3333333  -0.0833281), wk =   0.0023148
        k(  135) = (   0.0833333   0.4166667   0.0000000), wk =   0.0023148
        k(  136) = (   0.0833333   0.4166667   0.0833281), wk =   0.0023148
        k(  137) = (   0.0833333   0.4166667   0.1666561), wk =   0.0023148
        k(  138) = (   0.0833333   0.4166667   0.2499842), wk =   0.0023148
        k(  139) = (   0.0833333   0.4166667   0.3333122), wk =   0.0023148
        k(  140) = (   0.0833333   0.4166667   0.4166403), wk =   0.0023148
        k(  141) = (   0.0833333   0.4166667  -0.4999683), wk =   0.0023148
        k(  142) = (   0.0833333   0.4166667  -0.4166403), wk =   0.0023148
        k(  143) = (   0.0833333   0.4166667  -0.3333122), wk =   0.0023148
        k(  144) = (   0.0833333   0.4166667  -0.2499842), wk =   0.0023148
        k(  145) = (   0.0833333   0.4166667  -0.1666561), wk =   0.0023148
        k(  146) = (   0.0833333   0.4166667  -0.0833281), wk =   0.0023148
        k(  147) = (   0.0833333  -0.5000000   0.0000000), wk =   0.0023148
        k(  148) = (   0.0833333  -0.5000000   0.0833281), wk =   0.0023148
        k(  149) = (   0.0833333  -0.5000000   0.1666561), wk =   0.0023148
        k(  150) = (   0.0833333  -0.5000000   0.2499842), wk =   0.0023148
        k(  151) = (   0.0833333  -0.5000000   0.3333122), wk =   0.0023148
        k(  152) = (   0.0833333  -0.5000000   0.4166403), wk =   0.0023148
        k(  153) = (   0.0833333  -0.5000000  -0.4999683), wk =   0.0023148
        k(  154) = (   0.0833333  -0.5000000  -0.4166403), wk =   0.0023148
        k(  155) = (   0.0833333  -0.5000000  -0.3333122), wk =   0.0023148
        k(  156) = (   0.0833333  -0.5000000  -0.2499842), wk =   0.0023148
        k(  157) = (   0.0833333  -0.5000000  -0.1666561), wk =   0.0023148
        k(  158) = (   0.0833333  -0.5000000  -0.0833281), wk =   0.0023148
        k(  159) = (   0.0833333  -0.4166667   0.0000000), wk =   0.0023148
        k(  160) = (   0.0833333  -0.4166667   0.0833281), wk =   0.0023148
        k(  161) = (   0.0833333  -0.4166667   0.1666561), wk =   0.0023148
        k(  162) = (   0.0833333  -0.4166667   0.2499842), wk =   0.0023148
        k(  163) = (   0.0833333  -0.4166667   0.3333122), wk =   0.0023148
        k(  164) = (   0.0833333  -0.4166667   0.4166403), wk =   0.0023148
        k(  165) = (   0.0833333  -0.4166667  -0.4999683), wk =   0.0023148
        k(  166) = (   0.0833333  -0.4166667  -0.4166403), wk =   0.0023148
        k(  167) = (   0.0833333  -0.4166667  -0.3333122), wk =   0.0023148
        k(  168) = (   0.0833333  -0.4166667  -0.2499842), wk =   0.0023148
        k(  169) = (   0.0833333  -0.4166667  -0.1666561), wk =   0.0023148
        k(  170) = (   0.0833333  -0.4166667  -0.0833281), wk =   0.0023148
        k(  171) = (   0.0833333  -0.3333333   0.0000000), wk =   0.0023148
        k(  172) = (   0.0833333  -0.3333333   0.0833281), wk =   0.0023148
        k(  173) = (   0.0833333  -0.3333333   0.1666561), wk =   0.0023148
        k(  174) = (   0.0833333  -0.3333333   0.2499842), wk =   0.0023148
        k(  175) = (   0.0833333  -0.3333333   0.3333122), wk =   0.0023148
        k(  176) = (   0.0833333  -0.3333333   0.4166403), wk =   0.0023148
        k(  177) = (   0.0833333  -0.3333333  -0.4999683), wk =   0.0023148
        k(  178) = (   0.0833333  -0.3333333  -0.4166403), wk =   0.0023148
        k(  179) = (   0.0833333  -0.3333333  -0.3333122), wk =   0.0023148
        k(  180) = (   0.0833333  -0.3333333  -0.2499842), wk =   0.0023148
        k(  181) = (   0.0833333  -0.3333333  -0.1666561), wk =   0.0023148
        k(  182) = (   0.0833333  -0.3333333  -0.0833281), wk =   0.0023148
        k(  183) = (   0.0833333  -0.2500000   0.0000000), wk =   0.0023148
        k(  184) = (   0.0833333  -0.2500000   0.0833281), wk =   0.0023148
        k(  185) = (   0.0833333  -0.2500000   0.1666561), wk =   0.0023148
        k(  186) = (   0.0833333  -0.2500000   0.2499842), wk =   0.0023148
        k(  187) = (   0.0833333  -0.2500000   0.3333122), wk =   0.0023148
        k(  188) = (   0.0833333  -0.2500000   0.4166403), wk =   0.0023148
        k(  189) = (   0.0833333  -0.2500000  -0.4999683), wk =   0.0023148
        k(  190) = (   0.0833333  -0.2500000  -0.4166403), wk =   0.0023148
        k(  191) = (   0.0833333  -0.2500000  -0.3333122), wk =   0.0023148
        k(  192) = (   0.0833333  -0.2500000  -0.2499842), wk =   0.0023148
        k(  193) = (   0.0833333  -0.2500000  -0.1666561), wk =   0.0023148
        k(  194) = (   0.0833333  -0.2500000  -0.0833281), wk =   0.0023148
        k(  195) = (   0.0833333  -0.1666667   0.0000000), wk =   0.0023148
        k(  196) = (   0.0833333  -0.1666667   0.0833281), wk =   0.0023148
        k(  197) = (   0.0833333  -0.1666667   0.1666561), wk =   0.0023148
        k(  198) = (   0.0833333  -0.1666667   0.2499842), wk =   0.0023148
        k(  199) = (   0.0833333  -0.1666667   0.3333122), wk =   0.0023148
        k(  200) = (   0.0833333  -0.1666667   0.4166403), wk =   0.0023148
        k(  201) = (   0.0833333  -0.1666667  -0.4999683), wk =   0.0023148
        k(  202) = (   0.0833333  -0.1666667  -0.4166403), wk =   0.0023148
        k(  203) = (   0.0833333  -0.1666667  -0.3333122), wk =   0.0023148
        k(  204) = (   0.0833333  -0.1666667  -0.2499842), wk =   0.0023148
        k(  205) = (   0.0833333  -0.1666667  -0.1666561), wk =   0.0023148
        k(  206) = (   0.0833333  -0.1666667  -0.0833281), wk =   0.0023148
        k(  207) = (   0.0833333  -0.0833333   0.0000000), wk =   0.0023148
        k(  208) = (   0.0833333  -0.0833333   0.0833281), wk =   0.0023148
        k(  209) = (   0.0833333  -0.0833333   0.1666561), wk =   0.0023148
        k(  210) = (   0.0833333  -0.0833333   0.2499842), wk =   0.0023148
        k(  211) = (   0.0833333  -0.0833333   0.3333122), wk =   0.0023148
        k(  212) = (   0.0833333  -0.0833333   0.4166403), wk =   0.0023148
        k(  213) = (   0.0833333  -0.0833333  -0.4999683), wk =   0.0023148
        k(  214) = (   0.0833333  -0.0833333  -0.4166403), wk =   0.0023148
        k(  215) = (   0.0833333  -0.0833333  -0.3333122), wk =   0.0023148
        k(  216) = (   0.0833333  -0.0833333  -0.2499842), wk =   0.0023148
        k(  217) = (   0.0833333  -0.0833333  -0.1666561), wk =   0.0023148
        k(  218) = (   0.0833333  -0.0833333  -0.0833281), wk =   0.0023148
        k(  219) = (   0.1666667   0.0000000   0.0000000), wk =   0.0023148
        k(  220) = (   0.1666667   0.0000000   0.0833281), wk =   0.0023148
        k(  221) = (   0.1666667   0.0000000   0.1666561), wk =   0.0023148
        k(  222) = (   0.1666667   0.0000000   0.2499842), wk =   0.0023148
        k(  223) = (   0.1666667   0.0000000   0.3333122), wk =   0.0023148
        k(  224) = (   0.1666667   0.0000000   0.4166403), wk =   0.0023148
        k(  225) = (   0.1666667   0.0000000  -0.4999683), wk =   0.0023148
        k(  226) = (   0.1666667   0.0000000  -0.4166403), wk =   0.0023148
        k(  227) = (   0.1666667   0.0000000  -0.3333122), wk =   0.0023148
        k(  228) = (   0.1666667   0.0000000  -0.2499842), wk =   0.0023148
        k(  229) = (   0.1666667   0.0000000  -0.1666561), wk =   0.0023148
        k(  230) = (   0.1666667   0.0000000  -0.0833281), wk =   0.0023148
        k(  231) = (   0.1666667   0.0833333   0.0000000), wk =   0.0023148
        k(  232) = (   0.1666667   0.0833333   0.0833281), wk =   0.0023148
        k(  233) = (   0.1666667   0.0833333   0.1666561), wk =   0.0023148
        k(  234) = (   0.1666667   0.0833333   0.2499842), wk =   0.0023148
        k(  235) = (   0.1666667   0.0833333   0.3333122), wk =   0.0023148
        k(  236) = (   0.1666667   0.0833333   0.4166403), wk =   0.0023148
        k(  237) = (   0.1666667   0.0833333  -0.4999683), wk =   0.0023148
        k(  238) = (   0.1666667   0.0833333  -0.4166403), wk =   0.0023148
        k(  239) = (   0.1666667   0.0833333  -0.3333122), wk =   0.0023148
        k(  240) = (   0.1666667   0.0833333  -0.2499842), wk =   0.0023148
        k(  241) = (   0.1666667   0.0833333  -0.1666561), wk =   0.0023148
        k(  242) = (   0.1666667   0.0833333  -0.0833281), wk =   0.0023148
        k(  243) = (   0.1666667   0.1666667   0.0000000), wk =   0.0023148
        k(  244) = (   0.1666667   0.1666667   0.0833281), wk =   0.0023148
        k(  245) = (   0.1666667   0.1666667   0.1666561), wk =   0.0023148
        k(  246) = (   0.1666667   0.1666667   0.2499842), wk =   0.0023148
        k(  247) = (   0.1666667   0.1666667   0.3333122), wk =   0.0023148
        k(  248) = (   0.1666667   0.1666667   0.4166403), wk =   0.0023148
        k(  249) = (   0.1666667   0.1666667  -0.4999683), wk =   0.0023148
        k(  250) = (   0.1666667   0.1666667  -0.4166403), wk =   0.0023148
        k(  251) = (   0.1666667   0.1666667  -0.3333122), wk =   0.0023148
        k(  252) = (   0.1666667   0.1666667  -0.2499842), wk =   0.0023148
        k(  253) = (   0.1666667   0.1666667  -0.1666561), wk =   0.0023148
        k(  254) = (   0.1666667   0.1666667  -0.0833281), wk =   0.0023148
        k(  255) = (   0.1666667   0.2500000   0.0000000), wk =   0.0023148
        k(  256) = (   0.1666667   0.2500000   0.0833281), wk =   0.0023148
        k(  257) = (   0.1666667   0.2500000   0.1666561), wk =   0.0023148
        k(  258) = (   0.1666667   0.2500000   0.2499842), wk =   0.0023148
        k(  259) = (   0.1666667   0.2500000   0.3333122), wk =   0.0023148
        k(  260) = (   0.1666667   0.2500000   0.4166403), wk =   0.0023148
        k(  261) = (   0.1666667   0.2500000  -0.4999683), wk =   0.0023148
        k(  262) = (   0.1666667   0.2500000  -0.4166403), wk =   0.0023148
        k(  263) = (   0.1666667   0.2500000  -0.3333122), wk =   0.0023148
        k(  264) = (   0.1666667   0.2500000  -0.2499842), wk =   0.0023148
        k(  265) = (   0.1666667   0.2500000  -0.1666561), wk =   0.0023148
        k(  266) = (   0.1666667   0.2500000  -0.0833281), wk =   0.0023148
        k(  267) = (   0.1666667   0.3333333   0.0000000), wk =   0.0023148
        k(  268) = (   0.1666667   0.3333333   0.0833281), wk =   0.0023148
        k(  269) = (   0.1666667   0.3333333   0.1666561), wk =   0.0023148
        k(  270) = (   0.1666667   0.3333333   0.2499842), wk =   0.0023148
        k(  271) = (   0.1666667   0.3333333   0.3333122), wk =   0.0023148
        k(  272) = (   0.1666667   0.3333333   0.4166403), wk =   0.0023148
        k(  273) = (   0.1666667   0.3333333  -0.4999683), wk =   0.0023148
        k(  274) = (   0.1666667   0.3333333  -0.4166403), wk =   0.0023148
        k(  275) = (   0.1666667   0.3333333  -0.3333122), wk =   0.0023148
        k(  276) = (   0.1666667   0.3333333  -0.2499842), wk =   0.0023148
        k(  277) = (   0.1666667   0.3333333  -0.1666561), wk =   0.0023148
        k(  278) = (   0.1666667   0.3333333  -0.0833281), wk =   0.0023148
        k(  279) = (   0.1666667   0.4166667   0.0000000), wk =   0.0023148
        k(  280) = (   0.1666667   0.4166667   0.0833281), wk =   0.0023148
        k(  281) = (   0.1666667   0.4166667   0.1666561), wk =   0.0023148
        k(  282) = (   0.1666667   0.4166667   0.2499842), wk =   0.0023148
        k(  283) = (   0.1666667   0.4166667   0.3333122), wk =   0.0023148
        k(  284) = (   0.1666667   0.4166667   0.4166403), wk =   0.0023148
        k(  285) = (   0.1666667   0.4166667  -0.4999683), wk =   0.0023148
        k(  286) = (   0.1666667   0.4166667  -0.4166403), wk =   0.0023148
        k(  287) = (   0.1666667   0.4166667  -0.3333122), wk =   0.0023148
        k(  288) = (   0.1666667   0.4166667  -0.2499842), wk =   0.0023148
        k(  289) = (   0.1666667   0.4166667  -0.1666561), wk =   0.0023148
        k(  290) = (   0.1666667   0.4166667  -0.0833281), wk =   0.0023148
        k(  291) = (   0.1666667  -0.5000000   0.0000000), wk =   0.0023148
        k(  292) = (   0.1666667  -0.5000000   0.0833281), wk =   0.0023148
        k(  293) = (   0.1666667  -0.5000000   0.1666561), wk =   0.0023148
        k(  294) = (   0.1666667  -0.5000000   0.2499842), wk =   0.0023148
        k(  295) = (   0.1666667  -0.5000000   0.3333122), wk =   0.0023148
        k(  296) = (   0.1666667  -0.5000000   0.4166403), wk =   0.0023148
        k(  297) = (   0.1666667  -0.5000000  -0.4999683), wk =   0.0023148
        k(  298) = (   0.1666667  -0.5000000  -0.4166403), wk =   0.0023148
        k(  299) = (   0.1666667  -0.5000000  -0.3333122), wk =   0.0023148
        k(  300) = (   0.1666667  -0.5000000  -0.2499842), wk =   0.0023148
        k(  301) = (   0.1666667  -0.5000000  -0.1666561), wk =   0.0023148
        k(  302) = (   0.1666667  -0.5000000  -0.0833281), wk =   0.0023148
        k(  303) = (   0.1666667  -0.4166667   0.0000000), wk =   0.0023148
        k(  304) = (   0.1666667  -0.4166667   0.0833281), wk =   0.0023148
        k(  305) = (   0.1666667  -0.4166667   0.1666561), wk =   0.0023148
        k(  306) = (   0.1666667  -0.4166667   0.2499842), wk =   0.0023148
        k(  307) = (   0.1666667  -0.4166667   0.3333122), wk =   0.0023148
        k(  308) = (   0.1666667  -0.4166667   0.4166403), wk =   0.0023148
        k(  309) = (   0.1666667  -0.4166667  -0.4999683), wk =   0.0023148
        k(  310) = (   0.1666667  -0.4166667  -0.4166403), wk =   0.0023148
        k(  311) = (   0.1666667  -0.4166667  -0.3333122), wk =   0.0023148
        k(  312) = (   0.1666667  -0.4166667  -0.2499842), wk =   0.0023148
        k(  313) = (   0.1666667  -0.4166667  -0.1666561), wk =   0.0023148
        k(  314) = (   0.1666667  -0.4166667  -0.0833281), wk =   0.0023148
        k(  315) = (   0.1666667  -0.3333333   0.0000000), wk =   0.0023148
        k(  316) = (   0.1666667  -0.3333333   0.0833281), wk =   0.0023148
        k(  317) = (   0.1666667  -0.3333333   0.1666561), wk =   0.0023148
        k(  318) = (   0.1666667  -0.3333333   0.2499842), wk =   0.0023148
        k(  319) = (   0.1666667  -0.3333333   0.3333122), wk =   0.0023148
        k(  320) = (   0.1666667  -0.3333333   0.4166403), wk =   0.0023148
        k(  321) = (   0.1666667  -0.3333333  -0.4999683), wk =   0.0023148
        k(  322) = (   0.1666667  -0.3333333  -0.4166403), wk =   0.0023148
        k(  323) = (   0.1666667  -0.3333333  -0.3333122), wk =   0.0023148
        k(  324) = (   0.1666667  -0.3333333  -0.2499842), wk =   0.0023148
        k(  325) = (   0.1666667  -0.3333333  -0.1666561), wk =   0.0023148
        k(  326) = (   0.1666667  -0.3333333  -0.0833281), wk =   0.0023148
        k(  327) = (   0.1666667  -0.2500000   0.0000000), wk =   0.0023148
        k(  328) = (   0.1666667  -0.2500000   0.0833281), wk =   0.0023148
        k(  329) = (   0.1666667  -0.2500000   0.1666561), wk =   0.0023148
        k(  330) = (   0.1666667  -0.2500000   0.2499842), wk =   0.0023148
        k(  331) = (   0.1666667  -0.2500000   0.3333122), wk =   0.0023148
        k(  332) = (   0.1666667  -0.2500000   0.4166403), wk =   0.0023148
        k(  333) = (   0.1666667  -0.2500000  -0.4999683), wk =   0.0023148
        k(  334) = (   0.1666667  -0.2500000  -0.4166403), wk =   0.0023148
        k(  335) = (   0.1666667  -0.2500000  -0.3333122), wk =   0.0023148
        k(  336) = (   0.1666667  -0.2500000  -0.2499842), wk =   0.0023148
        k(  337) = (   0.1666667  -0.2500000  -0.1666561), wk =   0.0023148
        k(  338) = (   0.1666667  -0.2500000  -0.0833281), wk =   0.0023148
        k(  339) = (   0.1666667  -0.1666667   0.0000000), wk =   0.0023148
        k(  340) = (   0.1666667  -0.1666667   0.0833281), wk =   0.0023148
        k(  341) = (   0.1666667  -0.1666667   0.1666561), wk =   0.0023148
        k(  342) = (   0.1666667  -0.1666667   0.2499842), wk =   0.0023148
        k(  343) = (   0.1666667  -0.1666667   0.3333122), wk =   0.0023148
        k(  344) = (   0.1666667  -0.1666667   0.4166403), wk =   0.0023148
        k(  345) = (   0.1666667  -0.1666667  -0.4999683), wk =   0.0023148
        k(  346) = (   0.1666667  -0.1666667  -0.4166403), wk =   0.0023148
        k(  347) = (   0.1666667  -0.1666667  -0.3333122), wk =   0.0023148
        k(  348) = (   0.1666667  -0.1666667  -0.2499842), wk =   0.0023148
        k(  349) = (   0.1666667  -0.1666667  -0.1666561), wk =   0.0023148
        k(  350) = (   0.1666667  -0.1666667  -0.0833281), wk =   0.0023148
        k(  351) = (   0.1666667  -0.0833333   0.0000000), wk =   0.0023148
        k(  352) = (   0.1666667  -0.0833333   0.0833281), wk =   0.0023148
        k(  353) = (   0.1666667  -0.0833333   0.1666561), wk =   0.0023148
        k(  354) = (   0.1666667  -0.0833333   0.2499842), wk =   0.0023148
        k(  355) = (   0.1666667  -0.0833333   0.3333122), wk =   0.0023148
        k(  356) = (   0.1666667  -0.0833333   0.4166403), wk =   0.0023148
        k(  357) = (   0.1666667  -0.0833333  -0.4999683), wk =   0.0023148
        k(  358) = (   0.1666667  -0.0833333  -0.4166403), wk =   0.0023148
        k(  359) = (   0.1666667  -0.0833333  -0.3333122), wk =   0.0023148
        k(  360) = (   0.1666667  -0.0833333  -0.2499842), wk =   0.0023148
        k(  361) = (   0.1666667  -0.0833333  -0.1666561), wk =   0.0023148
        k(  362) = (   0.1666667  -0.0833333  -0.0833281), wk =   0.0023148
        k(  363) = (   0.2500000   0.0000000   0.0000000), wk =   0.0023148
        k(  364) = (   0.2500000   0.0000000   0.0833281), wk =   0.0023148
        k(  365) = (   0.2500000   0.0000000   0.1666561), wk =   0.0023148
        k(  366) = (   0.2500000   0.0000000   0.2499842), wk =   0.0023148
        k(  367) = (   0.2500000   0.0000000   0.3333122), wk =   0.0023148
        k(  368) = (   0.2500000   0.0000000   0.4166403), wk =   0.0023148
        k(  369) = (   0.2500000   0.0000000  -0.4999683), wk =   0.0023148
        k(  370) = (   0.2500000   0.0000000  -0.4166403), wk =   0.0023148
        k(  371) = (   0.2500000   0.0000000  -0.3333122), wk =   0.0023148
        k(  372) = (   0.2500000   0.0000000  -0.2499842), wk =   0.0023148
        k(  373) = (   0.2500000   0.0000000  -0.1666561), wk =   0.0023148
        k(  374) = (   0.2500000   0.0000000  -0.0833281), wk =   0.0023148
        k(  375) = (   0.2500000   0.0833333   0.0000000), wk =   0.0023148
        k(  376) = (   0.2500000   0.0833333   0.0833281), wk =   0.0023148
        k(  377) = (   0.2500000   0.0833333   0.1666561), wk =   0.0023148
        k(  378) = (   0.2500000   0.0833333   0.2499842), wk =   0.0023148
        k(  379) = (   0.2500000   0.0833333   0.3333122), wk =   0.0023148
        k(  380) = (   0.2500000   0.0833333   0.4166403), wk =   0.0023148
        k(  381) = (   0.2500000   0.0833333  -0.4999683), wk =   0.0023148
        k(  382) = (   0.2500000   0.0833333  -0.4166403), wk =   0.0023148
        k(  383) = (   0.2500000   0.0833333  -0.3333122), wk =   0.0023148
        k(  384) = (   0.2500000   0.0833333  -0.2499842), wk =   0.0023148
        k(  385) = (   0.2500000   0.0833333  -0.1666561), wk =   0.0023148
        k(  386) = (   0.2500000   0.0833333  -0.0833281), wk =   0.0023148
        k(  387) = (   0.2500000   0.1666667   0.0000000), wk =   0.0023148
        k(  388) = (   0.2500000   0.1666667   0.0833281), wk =   0.0023148
        k(  389) = (   0.2500000   0.1666667   0.1666561), wk =   0.0023148
        k(  390) = (   0.2500000   0.1666667   0.2499842), wk =   0.0023148
        k(  391) = (   0.2500000   0.1666667   0.3333122), wk =   0.0023148
        k(  392) = (   0.2500000   0.1666667   0.4166403), wk =   0.0023148
        k(  393) = (   0.2500000   0.1666667  -0.4999683), wk =   0.0023148
        k(  394) = (   0.2500000   0.1666667  -0.4166403), wk =   0.0023148
        k(  395) = (   0.2500000   0.1666667  -0.3333122), wk =   0.0023148
        k(  396) = (   0.2500000   0.1666667  -0.2499842), wk =   0.0023148
        k(  397) = (   0.2500000   0.1666667  -0.1666561), wk =   0.0023148
        k(  398) = (   0.2500000   0.1666667  -0.0833281), wk =   0.0023148
        k(  399) = (   0.2500000   0.2500000   0.0000000), wk =   0.0023148
        k(  400) = (   0.2500000   0.2500000   0.0833281), wk =   0.0023148
        k(  401) = (   0.2500000   0.2500000   0.1666561), wk =   0.0023148
        k(  402) = (   0.2500000   0.2500000   0.2499842), wk =   0.0023148
        k(  403) = (   0.2500000   0.2500000   0.3333122), wk =   0.0023148
        k(  404) = (   0.2500000   0.2500000   0.4166403), wk =   0.0023148
        k(  405) = (   0.2500000   0.2500000  -0.4999683), wk =   0.0023148
        k(  406) = (   0.2500000   0.2500000  -0.4166403), wk =   0.0023148
        k(  407) = (   0.2500000   0.2500000  -0.3333122), wk =   0.0023148
        k(  408) = (   0.2500000   0.2500000  -0.2499842), wk =   0.0023148
        k(  409) = (   0.2500000   0.2500000  -0.1666561), wk =   0.0023148
        k(  410) = (   0.2500000   0.2500000  -0.0833281), wk =   0.0023148
        k(  411) = (   0.2500000   0.3333333   0.0000000), wk =   0.0023148
        k(  412) = (   0.2500000   0.3333333   0.0833281), wk =   0.0023148
        k(  413) = (   0.2500000   0.3333333   0.1666561), wk =   0.0023148
        k(  414) = (   0.2500000   0.3333333   0.2499842), wk =   0.0023148
        k(  415) = (   0.2500000   0.3333333   0.3333122), wk =   0.0023148
        k(  416) = (   0.2500000   0.3333333   0.4166403), wk =   0.0023148
        k(  417) = (   0.2500000   0.3333333  -0.4999683), wk =   0.0023148
        k(  418) = (   0.2500000   0.3333333  -0.4166403), wk =   0.0023148
        k(  419) = (   0.2500000   0.3333333  -0.3333122), wk =   0.0023148
        k(  420) = (   0.2500000   0.3333333  -0.2499842), wk =   0.0023148
        k(  421) = (   0.2500000   0.3333333  -0.1666561), wk =   0.0023148
        k(  422) = (   0.2500000   0.3333333  -0.0833281), wk =   0.0023148
        k(  423) = (   0.2500000   0.4166667   0.0000000), wk =   0.0023148
        k(  424) = (   0.2500000   0.4166667   0.0833281), wk =   0.0023148
        k(  425) = (   0.2500000   0.4166667   0.1666561), wk =   0.0023148
        k(  426) = (   0.2500000   0.4166667   0.2499842), wk =   0.0023148
        k(  427) = (   0.2500000   0.4166667   0.3333122), wk =   0.0023148
        k(  428) = (   0.2500000   0.4166667   0.4166403), wk =   0.0023148
        k(  429) = (   0.2500000   0.4166667  -0.4999683), wk =   0.0023148
        k(  430) = (   0.2500000   0.4166667  -0.4166403), wk =   0.0023148
        k(  431) = (   0.2500000   0.4166667  -0.3333122), wk =   0.0023148
        k(  432) = (   0.2500000   0.4166667  -0.2499842), wk =   0.0023148
        k(  433) = (   0.2500000   0.4166667  -0.1666561), wk =   0.0023148
        k(  434) = (   0.2500000   0.4166667  -0.0833281), wk =   0.0023148
        k(  435) = (   0.2500000  -0.5000000   0.0000000), wk =   0.0023148
        k(  436) = (   0.2500000  -0.5000000   0.0833281), wk =   0.0023148
        k(  437) = (   0.2500000  -0.5000000   0.1666561), wk =   0.0023148
        k(  438) = (   0.2500000  -0.5000000   0.2499842), wk =   0.0023148
        k(  439) = (   0.2500000  -0.5000000   0.3333122), wk =   0.0023148
        k(  440) = (   0.2500000  -0.5000000   0.4166403), wk =   0.0023148
        k(  441) = (   0.2500000  -0.5000000  -0.4999683), wk =   0.0023148
        k(  442) = (   0.2500000  -0.5000000  -0.4166403), wk =   0.0023148
        k(  443) = (   0.2500000  -0.5000000  -0.3333122), wk =   0.0023148
        k(  444) = (   0.2500000  -0.5000000  -0.2499842), wk =   0.0023148
        k(  445) = (   0.2500000  -0.5000000  -0.1666561), wk =   0.0023148
        k(  446) = (   0.2500000  -0.5000000  -0.0833281), wk =   0.0023148
        k(  447) = (   0.2500000  -0.4166667   0.0000000), wk =   0.0023148
        k(  448) = (   0.2500000  -0.4166667   0.0833281), wk =   0.0023148
        k(  449) = (   0.2500000  -0.4166667   0.1666561), wk =   0.0023148
        k(  450) = (   0.2500000  -0.4166667   0.2499842), wk =   0.0023148
        k(  451) = (   0.2500000  -0.4166667   0.3333122), wk =   0.0023148
        k(  452) = (   0.2500000  -0.4166667   0.4166403), wk =   0.0023148
        k(  453) = (   0.2500000  -0.4166667  -0.4999683), wk =   0.0023148
        k(  454) = (   0.2500000  -0.4166667  -0.4166403), wk =   0.0023148
        k(  455) = (   0.2500000  -0.4166667  -0.3333122), wk =   0.0023148
        k(  456) = (   0.2500000  -0.4166667  -0.2499842), wk =   0.0023148
        k(  457) = (   0.2500000  -0.4166667  -0.1666561), wk =   0.0023148
        k(  458) = (   0.2500000  -0.4166667  -0.0833281), wk =   0.0023148
        k(  459) = (   0.2500000  -0.3333333   0.0000000), wk =   0.0023148
        k(  460) = (   0.2500000  -0.3333333   0.0833281), wk =   0.0023148
        k(  461) = (   0.2500000  -0.3333333   0.1666561), wk =   0.0023148
        k(  462) = (   0.2500000  -0.3333333   0.2499842), wk =   0.0023148
        k(  463) = (   0.2500000  -0.3333333   0.3333122), wk =   0.0023148
        k(  464) = (   0.2500000  -0.3333333   0.4166403), wk =   0.0023148
        k(  465) = (   0.2500000  -0.3333333  -0.4999683), wk =   0.0023148
        k(  466) = (   0.2500000  -0.3333333  -0.4166403), wk =   0.0023148
        k(  467) = (   0.2500000  -0.3333333  -0.3333122), wk =   0.0023148
        k(  468) = (   0.2500000  -0.3333333  -0.2499842), wk =   0.0023148
        k(  469) = (   0.2500000  -0.3333333  -0.1666561), wk =   0.0023148
        k(  470) = (   0.2500000  -0.3333333  -0.0833281), wk =   0.0023148
        k(  471) = (   0.2500000  -0.2500000   0.0000000), wk =   0.0023148
        k(  472) = (   0.2500000  -0.2500000   0.0833281), wk =   0.0023148
        k(  473) = (   0.2500000  -0.2500000   0.1666561), wk =   0.0023148
        k(  474) = (   0.2500000  -0.2500000   0.2499842), wk =   0.0023148
        k(  475) = (   0.2500000  -0.2500000   0.3333122), wk =   0.0023148
        k(  476) = (   0.2500000  -0.2500000   0.4166403), wk =   0.0023148
        k(  477) = (   0.2500000  -0.2500000  -0.4999683), wk =   0.0023148
        k(  478) = (   0.2500000  -0.2500000  -0.4166403), wk =   0.0023148
        k(  479) = (   0.2500000  -0.2500000  -0.3333122), wk =   0.0023148
        k(  480) = (   0.2500000  -0.2500000  -0.2499842), wk =   0.0023148
        k(  481) = (   0.2500000  -0.2500000  -0.1666561), wk =   0.0023148
        k(  482) = (   0.2500000  -0.2500000  -0.0833281), wk =   0.0023148
        k(  483) = (   0.2500000  -0.1666667   0.0000000), wk =   0.0023148
        k(  484) = (   0.2500000  -0.1666667   0.0833281), wk =   0.0023148
        k(  485) = (   0.2500000  -0.1666667   0.1666561), wk =   0.0023148
        k(  486) = (   0.2500000  -0.1666667   0.2499842), wk =   0.0023148
        k(  487) = (   0.2500000  -0.1666667   0.3333122), wk =   0.0023148
        k(  488) = (   0.2500000  -0.1666667   0.4166403), wk =   0.0023148
        k(  489) = (   0.2500000  -0.1666667  -0.4999683), wk =   0.0023148
        k(  490) = (   0.2500000  -0.1666667  -0.4166403), wk =   0.0023148
        k(  491) = (   0.2500000  -0.1666667  -0.3333122), wk =   0.0023148
        k(  492) = (   0.2500000  -0.1666667  -0.2499842), wk =   0.0023148
        k(  493) = (   0.2500000  -0.1666667  -0.1666561), wk =   0.0023148
        k(  494) = (   0.2500000  -0.1666667  -0.0833281), wk =   0.0023148
        k(  495) = (   0.2500000  -0.0833333   0.0000000), wk =   0.0023148
        k(  496) = (   0.2500000  -0.0833333   0.0833281), wk =   0.0023148
        k(  497) = (   0.2500000  -0.0833333   0.1666561), wk =   0.0023148
        k(  498) = (   0.2500000  -0.0833333   0.2499842), wk =   0.0023148
        k(  499) = (   0.2500000  -0.0833333   0.3333122), wk =   0.0023148
        k(  500) = (   0.2500000  -0.0833333   0.4166403), wk =   0.0023148
        k(  501) = (   0.2500000  -0.0833333  -0.4999683), wk =   0.0023148
        k(  502) = (   0.2500000  -0.0833333  -0.4166403), wk =   0.0023148
        k(  503) = (   0.2500000  -0.0833333  -0.3333122), wk =   0.0023148
        k(  504) = (   0.2500000  -0.0833333  -0.2499842), wk =   0.0023148
        k(  505) = (   0.2500000  -0.0833333  -0.1666561), wk =   0.0023148
        k(  506) = (   0.2500000  -0.0833333  -0.0833281), wk =   0.0023148
        k(  507) = (   0.3333333   0.0000000   0.0000000), wk =   0.0023148
        k(  508) = (   0.3333333   0.0000000   0.0833281), wk =   0.0023148
        k(  509) = (   0.3333333   0.0000000   0.1666561), wk =   0.0023148
        k(  510) = (   0.3333333   0.0000000   0.2499842), wk =   0.0023148
        k(  511) = (   0.3333333   0.0000000   0.3333122), wk =   0.0023148
        k(  512) = (   0.3333333   0.0000000   0.4166403), wk =   0.0023148
        k(  513) = (   0.3333333   0.0000000  -0.4999683), wk =   0.0023148
        k(  514) = (   0.3333333   0.0000000  -0.4166403), wk =   0.0023148
        k(  515) = (   0.3333333   0.0000000  -0.3333122), wk =   0.0023148
        k(  516) = (   0.3333333   0.0000000  -0.2499842), wk =   0.0023148
        k(  517) = (   0.3333333   0.0000000  -0.1666561), wk =   0.0023148
        k(  518) = (   0.3333333   0.0000000  -0.0833281), wk =   0.0023148
        k(  519) = (   0.3333333   0.0833333   0.0000000), wk =   0.0023148
        k(  520) = (   0.3333333   0.0833333   0.0833281), wk =   0.0023148
        k(  521) = (   0.3333333   0.0833333   0.1666561), wk =   0.0023148
        k(  522) = (   0.3333333   0.0833333   0.2499842), wk =   0.0023148
        k(  523) = (   0.3333333   0.0833333   0.3333122), wk =   0.0023148
        k(  524) = (   0.3333333   0.0833333   0.4166403), wk =   0.0023148
        k(  525) = (   0.3333333   0.0833333  -0.4999683), wk =   0.0023148
        k(  526) = (   0.3333333   0.0833333  -0.4166403), wk =   0.0023148
        k(  527) = (   0.3333333   0.0833333  -0.3333122), wk =   0.0023148
        k(  528) = (   0.3333333   0.0833333  -0.2499842), wk =   0.0023148
        k(  529) = (   0.3333333   0.0833333  -0.1666561), wk =   0.0023148
        k(  530) = (   0.3333333   0.0833333  -0.0833281), wk =   0.0023148
        k(  531) = (   0.3333333   0.1666667   0.0000000), wk =   0.0023148
        k(  532) = (   0.3333333   0.1666667   0.0833281), wk =   0.0023148
        k(  533) = (   0.3333333   0.1666667   0.1666561), wk =   0.0023148
        k(  534) = (   0.3333333   0.1666667   0.2499842), wk =   0.0023148
        k(  535) = (   0.3333333   0.1666667   0.3333122), wk =   0.0023148
        k(  536) = (   0.3333333   0.1666667   0.4166403), wk =   0.0023148
        k(  537) = (   0.3333333   0.1666667  -0.4999683), wk =   0.0023148
        k(  538) = (   0.3333333   0.1666667  -0.4166403), wk =   0.0023148
        k(  539) = (   0.3333333   0.1666667  -0.3333122), wk =   0.0023148
        k(  540) = (   0.3333333   0.1666667  -0.2499842), wk =   0.0023148
        k(  541) = (   0.3333333   0.1666667  -0.1666561), wk =   0.0023148
        k(  542) = (   0.3333333   0.1666667  -0.0833281), wk =   0.0023148
        k(  543) = (   0.3333333   0.2500000   0.0000000), wk =   0.0023148
        k(  544) = (   0.3333333   0.2500000   0.0833281), wk =   0.0023148
        k(  545) = (   0.3333333   0.2500000   0.1666561), wk =   0.0023148
        k(  546) = (   0.3333333   0.2500000   0.2499842), wk =   0.0023148
        k(  547) = (   0.3333333   0.2500000   0.3333122), wk =   0.0023148
        k(  548) = (   0.3333333   0.2500000   0.4166403), wk =   0.0023148
        k(  549) = (   0.3333333   0.2500000  -0.4999683), wk =   0.0023148
        k(  550) = (   0.3333333   0.2500000  -0.4166403), wk =   0.0023148
        k(  551) = (   0.3333333   0.2500000  -0.3333122), wk =   0.0023148
        k(  552) = (   0.3333333   0.2500000  -0.2499842), wk =   0.0023148
        k(  553) = (   0.3333333   0.2500000  -0.1666561), wk =   0.0023148
        k(  554) = (   0.3333333   0.2500000  -0.0833281), wk =   0.0023148
        k(  555) = (   0.3333333   0.3333333   0.0000000), wk =   0.0023148
        k(  556) = (   0.3333333   0.3333333   0.0833281), wk =   0.0023148
        k(  557) = (   0.3333333   0.3333333   0.1666561), wk =   0.0023148
        k(  558) = (   0.3333333   0.3333333   0.2499842), wk =   0.0023148
        k(  559) = (   0.3333333   0.3333333   0.3333122), wk =   0.0023148
        k(  560) = (   0.3333333   0.3333333   0.4166403), wk =   0.0023148
        k(  561) = (   0.3333333   0.3333333  -0.4999683), wk =   0.0023148
        k(  562) = (   0.3333333   0.3333333  -0.4166403), wk =   0.0023148
        k(  563) = (   0.3333333   0.3333333  -0.3333122), wk =   0.0023148
        k(  564) = (   0.3333333   0.3333333  -0.2499842), wk =   0.0023148
        k(  565) = (   0.3333333   0.3333333  -0.1666561), wk =   0.0023148
        k(  566) = (   0.3333333   0.3333333  -0.0833281), wk =   0.0023148
        k(  567) = (   0.3333333   0.4166667   0.0000000), wk =   0.0023148
        k(  568) = (   0.3333333   0.4166667   0.0833281), wk =   0.0023148
        k(  569) = (   0.3333333   0.4166667   0.1666561), wk =   0.0023148
        k(  570) = (   0.3333333   0.4166667   0.2499842), wk =   0.0023148
        k(  571) = (   0.3333333   0.4166667   0.3333122), wk =   0.0023148
        k(  572) = (   0.3333333   0.4166667   0.4166403), wk =   0.0023148
        k(  573) = (   0.3333333   0.4166667  -0.4999683), wk =   0.0023148
        k(  574) = (   0.3333333   0.4166667  -0.4166403), wk =   0.0023148
        k(  575) = (   0.3333333   0.4166667  -0.3333122), wk =   0.0023148
        k(  576) = (   0.3333333   0.4166667  -0.2499842), wk =   0.0023148
        k(  577) = (   0.3333333   0.4166667  -0.1666561), wk =   0.0023148
        k(  578) = (   0.3333333   0.4166667  -0.0833281), wk =   0.0023148
        k(  579) = (   0.3333333  -0.5000000   0.0000000), wk =   0.0023148
        k(  580) = (   0.3333333  -0.5000000   0.0833281), wk =   0.0023148
        k(  581) = (   0.3333333  -0.5000000   0.1666561), wk =   0.0023148
        k(  582) = (   0.3333333  -0.5000000   0.2499842), wk =   0.0023148
        k(  583) = (   0.3333333  -0.5000000   0.3333122), wk =   0.0023148
        k(  584) = (   0.3333333  -0.5000000   0.4166403), wk =   0.0023148
        k(  585) = (   0.3333333  -0.5000000  -0.4999683), wk =   0.0023148
        k(  586) = (   0.3333333  -0.5000000  -0.4166403), wk =   0.0023148
        k(  587) = (   0.3333333  -0.5000000  -0.3333122), wk =   0.0023148
        k(  588) = (   0.3333333  -0.5000000  -0.2499842), wk =   0.0023148
        k(  589) = (   0.3333333  -0.5000000  -0.1666561), wk =   0.0023148
        k(  590) = (   0.3333333  -0.5000000  -0.0833281), wk =   0.0023148
        k(  591) = (   0.3333333  -0.4166667   0.0000000), wk =   0.0023148
        k(  592) = (   0.3333333  -0.4166667   0.0833281), wk =   0.0023148
        k(  593) = (   0.3333333  -0.4166667   0.1666561), wk =   0.0023148
        k(  594) = (   0.3333333  -0.4166667   0.2499842), wk =   0.0023148
        k(  595) = (   0.3333333  -0.4166667   0.3333122), wk =   0.0023148
        k(  596) = (   0.3333333  -0.4166667   0.4166403), wk =   0.0023148
        k(  597) = (   0.3333333  -0.4166667  -0.4999683), wk =   0.0023148
        k(  598) = (   0.3333333  -0.4166667  -0.4166403), wk =   0.0023148
        k(  599) = (   0.3333333  -0.4166667  -0.3333122), wk =   0.0023148
        k(  600) = (   0.3333333  -0.4166667  -0.2499842), wk =   0.0023148
        k(  601) = (   0.3333333  -0.4166667  -0.1666561), wk =   0.0023148
        k(  602) = (   0.3333333  -0.4166667  -0.0833281), wk =   0.0023148
        k(  603) = (   0.3333333  -0.3333333   0.0000000), wk =   0.0023148
        k(  604) = (   0.3333333  -0.3333333   0.0833281), wk =   0.0023148
        k(  605) = (   0.3333333  -0.3333333   0.1666561), wk =   0.0023148
        k(  606) = (   0.3333333  -0.3333333   0.2499842), wk =   0.0023148
        k(  607) = (   0.3333333  -0.3333333   0.3333122), wk =   0.0023148
        k(  608) = (   0.3333333  -0.3333333   0.4166403), wk =   0.0023148
        k(  609) = (   0.3333333  -0.3333333  -0.4999683), wk =   0.0023148
        k(  610) = (   0.3333333  -0.3333333  -0.4166403), wk =   0.0023148
        k(  611) = (   0.3333333  -0.3333333  -0.3333122), wk =   0.0023148
        k(  612) = (   0.3333333  -0.3333333  -0.2499842), wk =   0.0023148
        k(  613) = (   0.3333333  -0.3333333  -0.1666561), wk =   0.0023148
        k(  614) = (   0.3333333  -0.3333333  -0.0833281), wk =   0.0023148
        k(  615) = (   0.3333333  -0.2500000   0.0000000), wk =   0.0023148
        k(  616) = (   0.3333333  -0.2500000   0.0833281), wk =   0.0023148
        k(  617) = (   0.3333333  -0.2500000   0.1666561), wk =   0.0023148
        k(  618) = (   0.3333333  -0.2500000   0.2499842), wk =   0.0023148
        k(  619) = (   0.3333333  -0.2500000   0.3333122), wk =   0.0023148
        k(  620) = (   0.3333333  -0.2500000   0.4166403), wk =   0.0023148
        k(  621) = (   0.3333333  -0.2500000  -0.4999683), wk =   0.0023148
        k(  622) = (   0.3333333  -0.2500000  -0.4166403), wk =   0.0023148
        k(  623) = (   0.3333333  -0.2500000  -0.3333122), wk =   0.0023148
        k(  624) = (   0.3333333  -0.2500000  -0.2499842), wk =   0.0023148
        k(  625) = (   0.3333333  -0.2500000  -0.1666561), wk =   0.0023148
        k(  626) = (   0.3333333  -0.2500000  -0.0833281), wk =   0.0023148
        k(  627) = (   0.3333333  -0.1666667   0.0000000), wk =   0.0023148
        k(  628) = (   0.3333333  -0.1666667   0.0833281), wk =   0.0023148
        k(  629) = (   0.3333333  -0.1666667   0.1666561), wk =   0.0023148
        k(  630) = (   0.3333333  -0.1666667   0.2499842), wk =   0.0023148
        k(  631) = (   0.3333333  -0.1666667   0.3333122), wk =   0.0023148
        k(  632) = (   0.3333333  -0.1666667   0.4166403), wk =   0.0023148
        k(  633) = (   0.3333333  -0.1666667  -0.4999683), wk =   0.0023148
        k(  634) = (   0.3333333  -0.1666667  -0.4166403), wk =   0.0023148
        k(  635) = (   0.3333333  -0.1666667  -0.3333122), wk =   0.0023148
        k(  636) = (   0.3333333  -0.1666667  -0.2499842), wk =   0.0023148
        k(  637) = (   0.3333333  -0.1666667  -0.1666561), wk =   0.0023148
        k(  638) = (   0.3333333  -0.1666667  -0.0833281), wk =   0.0023148
        k(  639) = (   0.3333333  -0.0833333   0.0000000), wk =   0.0023148
        k(  640) = (   0.3333333  -0.0833333   0.0833281), wk =   0.0023148
        k(  641) = (   0.3333333  -0.0833333   0.1666561), wk =   0.0023148
        k(  642) = (   0.3333333  -0.0833333   0.2499842), wk =   0.0023148
        k(  643) = (   0.3333333  -0.0833333   0.3333122), wk =   0.0023148
        k(  644) = (   0.3333333  -0.0833333   0.4166403), wk =   0.0023148
        k(  645) = (   0.3333333  -0.0833333  -0.4999683), wk =   0.0023148
        k(  646) = (   0.3333333  -0.0833333  -0.4166403), wk =   0.0023148
        k(  647) = (   0.3333333  -0.0833333  -0.3333122), wk =   0.0023148
        k(  648) = (   0.3333333  -0.0833333  -0.2499842), wk =   0.0023148
        k(  649) = (   0.3333333  -0.0833333  -0.1666561), wk =   0.0023148
        k(  650) = (   0.3333333  -0.0833333  -0.0833281), wk =   0.0023148
        k(  651) = (   0.4166667   0.0000000   0.0000000), wk =   0.0023148
        k(  652) = (   0.4166667   0.0000000   0.0833281), wk =   0.0023148
        k(  653) = (   0.4166667   0.0000000   0.1666561), wk =   0.0023148
        k(  654) = (   0.4166667   0.0000000   0.2499842), wk =   0.0023148
        k(  655) = (   0.4166667   0.0000000   0.3333122), wk =   0.0023148
        k(  656) = (   0.4166667   0.0000000   0.4166403), wk =   0.0023148
        k(  657) = (   0.4166667   0.0000000  -0.4999683), wk =   0.0023148
        k(  658) = (   0.4166667   0.0000000  -0.4166403), wk =   0.0023148
        k(  659) = (   0.4166667   0.0000000  -0.3333122), wk =   0.0023148
        k(  660) = (   0.4166667   0.0000000  -0.2499842), wk =   0.0023148
        k(  661) = (   0.4166667   0.0000000  -0.1666561), wk =   0.0023148
        k(  662) = (   0.4166667   0.0000000  -0.0833281), wk =   0.0023148
        k(  663) = (   0.4166667   0.0833333   0.0000000), wk =   0.0023148
        k(  664) = (   0.4166667   0.0833333   0.0833281), wk =   0.0023148
        k(  665) = (   0.4166667   0.0833333   0.1666561), wk =   0.0023148
        k(  666) = (   0.4166667   0.0833333   0.2499842), wk =   0.0023148
        k(  667) = (   0.4166667   0.0833333   0.3333122), wk =   0.0023148
        k(  668) = (   0.4166667   0.0833333   0.4166403), wk =   0.0023148
        k(  669) = (   0.4166667   0.0833333  -0.4999683), wk =   0.0023148
        k(  670) = (   0.4166667   0.0833333  -0.4166403), wk =   0.0023148
        k(  671) = (   0.4166667   0.0833333  -0.3333122), wk =   0.0023148
        k(  672) = (   0.4166667   0.0833333  -0.2499842), wk =   0.0023148
        k(  673) = (   0.4166667   0.0833333  -0.1666561), wk =   0.0023148
        k(  674) = (   0.4166667   0.0833333  -0.0833281), wk =   0.0023148
        k(  675) = (   0.4166667   0.1666667   0.0000000), wk =   0.0023148
        k(  676) = (   0.4166667   0.1666667   0.0833281), wk =   0.0023148
        k(  677) = (   0.4166667   0.1666667   0.1666561), wk =   0.0023148
        k(  678) = (   0.4166667   0.1666667   0.2499842), wk =   0.0023148
        k(  679) = (   0.4166667   0.1666667   0.3333122), wk =   0.0023148
        k(  680) = (   0.4166667   0.1666667   0.4166403), wk =   0.0023148
        k(  681) = (   0.4166667   0.1666667  -0.4999683), wk =   0.0023148
        k(  682) = (   0.4166667   0.1666667  -0.4166403), wk =   0.0023148
        k(  683) = (   0.4166667   0.1666667  -0.3333122), wk =   0.0023148
        k(  684) = (   0.4166667   0.1666667  -0.2499842), wk =   0.0023148
        k(  685) = (   0.4166667   0.1666667  -0.1666561), wk =   0.0023148
        k(  686) = (   0.4166667   0.1666667  -0.0833281), wk =   0.0023148
        k(  687) = (   0.4166667   0.2500000   0.0000000), wk =   0.0023148
        k(  688) = (   0.4166667   0.2500000   0.0833281), wk =   0.0023148
        k(  689) = (   0.4166667   0.2500000   0.1666561), wk =   0.0023148
        k(  690) = (   0.4166667   0.2500000   0.2499842), wk =   0.0023148
        k(  691) = (   0.4166667   0.2500000   0.3333122), wk =   0.0023148
        k(  692) = (   0.4166667   0.2500000   0.4166403), wk =   0.0023148
        k(  693) = (   0.4166667   0.2500000  -0.4999683), wk =   0.0023148
        k(  694) = (   0.4166667   0.2500000  -0.4166403), wk =   0.0023148
        k(  695) = (   0.4166667   0.2500000  -0.3333122), wk =   0.0023148
        k(  696) = (   0.4166667   0.2500000  -0.2499842), wk =   0.0023148
        k(  697) = (   0.4166667   0.2500000  -0.1666561), wk =   0.0023148
        k(  698) = (   0.4166667   0.2500000  -0.0833281), wk =   0.0023148
        k(  699) = (   0.4166667   0.3333333   0.0000000), wk =   0.0023148
        k(  700) = (   0.4166667   0.3333333   0.0833281), wk =   0.0023148
        k(  701) = (   0.4166667   0.3333333   0.1666561), wk =   0.0023148
        k(  702) = (   0.4166667   0.3333333   0.2499842), wk =   0.0023148
        k(  703) = (   0.4166667   0.3333333   0.3333122), wk =   0.0023148
        k(  704) = (   0.4166667   0.3333333   0.4166403), wk =   0.0023148
        k(  705) = (   0.4166667   0.3333333  -0.4999683), wk =   0.0023148
        k(  706) = (   0.4166667   0.3333333  -0.4166403), wk =   0.0023148
        k(  707) = (   0.4166667   0.3333333  -0.3333122), wk =   0.0023148
        k(  708) = (   0.4166667   0.3333333  -0.2499842), wk =   0.0023148
        k(  709) = (   0.4166667   0.3333333  -0.1666561), wk =   0.0023148
        k(  710) = (   0.4166667   0.3333333  -0.0833281), wk =   0.0023148
        k(  711) = (   0.4166667   0.4166667   0.0000000), wk =   0.0023148
        k(  712) = (   0.4166667   0.4166667   0.0833281), wk =   0.0023148
        k(  713) = (   0.4166667   0.4166667   0.1666561), wk =   0.0023148
        k(  714) = (   0.4166667   0.4166667   0.2499842), wk =   0.0023148
        k(  715) = (   0.4166667   0.4166667   0.3333122), wk =   0.0023148
        k(  716) = (   0.4166667   0.4166667   0.4166403), wk =   0.0023148
        k(  717) = (   0.4166667   0.4166667  -0.4999683), wk =   0.0023148
        k(  718) = (   0.4166667   0.4166667  -0.4166403), wk =   0.0023148
        k(  719) = (   0.4166667   0.4166667  -0.3333122), wk =   0.0023148
        k(  720) = (   0.4166667   0.4166667  -0.2499842), wk =   0.0023148
        k(  721) = (   0.4166667   0.4166667  -0.1666561), wk =   0.0023148
        k(  722) = (   0.4166667   0.4166667  -0.0833281), wk =   0.0023148
        k(  723) = (   0.4166667  -0.5000000   0.0000000), wk =   0.0023148
        k(  724) = (   0.4166667  -0.5000000   0.0833281), wk =   0.0023148
        k(  725) = (   0.4166667  -0.5000000   0.1666561), wk =   0.0023148
        k(  726) = (   0.4166667  -0.5000000   0.2499842), wk =   0.0023148
        k(  727) = (   0.4166667  -0.5000000   0.3333122), wk =   0.0023148
        k(  728) = (   0.4166667  -0.5000000   0.4166403), wk =   0.0023148
        k(  729) = (   0.4166667  -0.5000000  -0.4999683), wk =   0.0023148
        k(  730) = (   0.4166667  -0.5000000  -0.4166403), wk =   0.0023148
        k(  731) = (   0.4166667  -0.5000000  -0.3333122), wk =   0.0023148
        k(  732) = (   0.4166667  -0.5000000  -0.2499842), wk =   0.0023148
        k(  733) = (   0.4166667  -0.5000000  -0.1666561), wk =   0.0023148
        k(  734) = (   0.4166667  -0.5000000  -0.0833281), wk =   0.0023148
        k(  735) = (   0.4166667  -0.4166667   0.0000000), wk =   0.0023148
        k(  736) = (   0.4166667  -0.4166667   0.0833281), wk =   0.0023148
        k(  737) = (   0.4166667  -0.4166667   0.1666561), wk =   0.0023148
        k(  738) = (   0.4166667  -0.4166667   0.2499842), wk =   0.0023148
        k(  739) = (   0.4166667  -0.4166667   0.3333122), wk =   0.0023148
        k(  740) = (   0.4166667  -0.4166667   0.4166403), wk =   0.0023148
        k(  741) = (   0.4166667  -0.4166667  -0.4999683), wk =   0.0023148
        k(  742) = (   0.4166667  -0.4166667  -0.4166403), wk =   0.0023148
        k(  743) = (   0.4166667  -0.4166667  -0.3333122), wk =   0.0023148
        k(  744) = (   0.4166667  -0.4166667  -0.2499842), wk =   0.0023148
        k(  745) = (   0.4166667  -0.4166667  -0.1666561), wk =   0.0023148
        k(  746) = (   0.4166667  -0.4166667  -0.0833281), wk =   0.0023148
        k(  747) = (   0.4166667  -0.3333333   0.0000000), wk =   0.0023148
        k(  748) = (   0.4166667  -0.3333333   0.0833281), wk =   0.0023148
        k(  749) = (   0.4166667  -0.3333333   0.1666561), wk =   0.0023148
        k(  750) = (   0.4166667  -0.3333333   0.2499842), wk =   0.0023148
        k(  751) = (   0.4166667  -0.3333333   0.3333122), wk =   0.0023148
        k(  752) = (   0.4166667  -0.3333333   0.4166403), wk =   0.0023148
        k(  753) = (   0.4166667  -0.3333333  -0.4999683), wk =   0.0023148
        k(  754) = (   0.4166667  -0.3333333  -0.4166403), wk =   0.0023148
        k(  755) = (   0.4166667  -0.3333333  -0.3333122), wk =   0.0023148
        k(  756) = (   0.4166667  -0.3333333  -0.2499842), wk =   0.0023148
        k(  757) = (   0.4166667  -0.3333333  -0.1666561), wk =   0.0023148
        k(  758) = (   0.4166667  -0.3333333  -0.0833281), wk =   0.0023148
        k(  759) = (   0.4166667  -0.2500000   0.0000000), wk =   0.0023148
        k(  760) = (   0.4166667  -0.2500000   0.0833281), wk =   0.0023148
        k(  761) = (   0.4166667  -0.2500000   0.1666561), wk =   0.0023148
        k(  762) = (   0.4166667  -0.2500000   0.2499842), wk =   0.0023148
        k(  763) = (   0.4166667  -0.2500000   0.3333122), wk =   0.0023148
        k(  764) = (   0.4166667  -0.2500000   0.4166403), wk =   0.0023148
        k(  765) = (   0.4166667  -0.2500000  -0.4999683), wk =   0.0023148
        k(  766) = (   0.4166667  -0.2500000  -0.4166403), wk =   0.0023148
        k(  767) = (   0.4166667  -0.2500000  -0.3333122), wk =   0.0023148
        k(  768) = (   0.4166667  -0.2500000  -0.2499842), wk =   0.0023148
        k(  769) = (   0.4166667  -0.2500000  -0.1666561), wk =   0.0023148
        k(  770) = (   0.4166667  -0.2500000  -0.0833281), wk =   0.0023148
        k(  771) = (   0.4166667  -0.1666667   0.0000000), wk =   0.0023148
        k(  772) = (   0.4166667  -0.1666667   0.0833281), wk =   0.0023148
        k(  773) = (   0.4166667  -0.1666667   0.1666561), wk =   0.0023148
        k(  774) = (   0.4166667  -0.1666667   0.2499842), wk =   0.0023148
        k(  775) = (   0.4166667  -0.1666667   0.3333122), wk =   0.0023148
        k(  776) = (   0.4166667  -0.1666667   0.4166403), wk =   0.0023148
        k(  777) = (   0.4166667  -0.1666667  -0.4999683), wk =   0.0023148
        k(  778) = (   0.4166667  -0.1666667  -0.4166403), wk =   0.0023148
        k(  779) = (   0.4166667  -0.1666667  -0.3333122), wk =   0.0023148
        k(  780) = (   0.4166667  -0.1666667  -0.2499842), wk =   0.0023148
        k(  781) = (   0.4166667  -0.1666667  -0.1666561), wk =   0.0023148
        k(  782) = (   0.4166667  -0.1666667  -0.0833281), wk =   0.0023148
        k(  783) = (   0.4166667  -0.0833333   0.0000000), wk =   0.0023148
        k(  784) = (   0.4166667  -0.0833333   0.0833281), wk =   0.0023148
        k(  785) = (   0.4166667  -0.0833333   0.1666561), wk =   0.0023148
        k(  786) = (   0.4166667  -0.0833333   0.2499842), wk =   0.0023148
        k(  787) = (   0.4166667  -0.0833333   0.3333122), wk =   0.0023148
        k(  788) = (   0.4166667  -0.0833333   0.4166403), wk =   0.0023148
        k(  789) = (   0.4166667  -0.0833333  -0.4999683), wk =   0.0023148
        k(  790) = (   0.4166667  -0.0833333  -0.4166403), wk =   0.0023148
        k(  791) = (   0.4166667  -0.0833333  -0.3333122), wk =   0.0023148
        k(  792) = (   0.4166667  -0.0833333  -0.2499842), wk =   0.0023148
        k(  793) = (   0.4166667  -0.0833333  -0.1666561), wk =   0.0023148
        k(  794) = (   0.4166667  -0.0833333  -0.0833281), wk =   0.0023148
        k(  795) = (  -0.5000000   0.0000000   0.0000000), wk =   0.0011574
        k(  796) = (  -0.5000000   0.0000000   0.0833281), wk =   0.0023148
        k(  797) = (  -0.5000000   0.0000000   0.1666561), wk =   0.0023148
        k(  798) = (  -0.5000000   0.0000000   0.2499842), wk =   0.0023148
        k(  799) = (  -0.5000000   0.0000000   0.3333122), wk =   0.0023148
        k(  800) = (  -0.5000000   0.0000000   0.4166403), wk =   0.0023148
        k(  801) = (  -0.5000000   0.0000000  -0.4999683), wk =   0.0011574
        k(  802) = (  -0.5000000   0.0833333   0.0000000), wk =   0.0023148
        k(  803) = (  -0.5000000   0.0833333   0.0833281), wk =   0.0023148
        k(  804) = (  -0.5000000   0.0833333   0.1666561), wk =   0.0023148
        k(  805) = (  -0.5000000   0.0833333   0.2499842), wk =   0.0023148
        k(  806) = (  -0.5000000   0.0833333   0.3333122), wk =   0.0023148
        k(  807) = (  -0.5000000   0.0833333   0.4166403), wk =   0.0023148
        k(  808) = (  -0.5000000   0.0833333  -0.4999683), wk =   0.0023148
        k(  809) = (  -0.5000000   0.0833333  -0.4166403), wk =   0.0023148
        k(  810) = (  -0.5000000   0.0833333  -0.3333122), wk =   0.0023148
        k(  811) = (  -0.5000000   0.0833333  -0.2499842), wk =   0.0023148
        k(  812) = (  -0.5000000   0.0833333  -0.1666561), wk =   0.0023148
        k(  813) = (  -0.5000000   0.0833333  -0.0833281), wk =   0.0023148
        k(  814) = (  -0.5000000   0.1666667   0.0000000), wk =   0.0023148
        k(  815) = (  -0.5000000   0.1666667   0.0833281), wk =   0.0023148
        k(  816) = (  -0.5000000   0.1666667   0.1666561), wk =   0.0023148
        k(  817) = (  -0.5000000   0.1666667   0.2499842), wk =   0.0023148
        k(  818) = (  -0.5000000   0.1666667   0.3333122), wk =   0.0023148
        k(  819) = (  -0.5000000   0.1666667   0.4166403), wk =   0.0023148
        k(  820) = (  -0.5000000   0.1666667  -0.4999683), wk =   0.0023148
        k(  821) = (  -0.5000000   0.1666667  -0.4166403), wk =   0.0023148
        k(  822) = (  -0.5000000   0.1666667  -0.3333122), wk =   0.0023148
        k(  823) = (  -0.5000000   0.1666667  -0.2499842), wk =   0.0023148
        k(  824) = (  -0.5000000   0.1666667  -0.1666561), wk =   0.0023148
        k(  825) = (  -0.5000000   0.1666667  -0.0833281), wk =   0.0023148
        k(  826) = (  -0.5000000   0.2500000   0.0000000), wk =   0.0023148
        k(  827) = (  -0.5000000   0.2500000   0.0833281), wk =   0.0023148
        k(  828) = (  -0.5000000   0.2500000   0.1666561), wk =   0.0023148
        k(  829) = (  -0.5000000   0.2500000   0.2499842), wk =   0.0023148
        k(  830) = (  -0.5000000   0.2500000   0.3333122), wk =   0.0023148
        k(  831) = (  -0.5000000   0.2500000   0.4166403), wk =   0.0023148
        k(  832) = (  -0.5000000   0.2500000  -0.4999683), wk =   0.0023148
        k(  833) = (  -0.5000000   0.2500000  -0.4166403), wk =   0.0023148
        k(  834) = (  -0.5000000   0.2500000  -0.3333122), wk =   0.0023148
        k(  835) = (  -0.5000000   0.2500000  -0.2499842), wk =   0.0023148
        k(  836) = (  -0.5000000   0.2500000  -0.1666561), wk =   0.0023148
        k(  837) = (  -0.5000000   0.2500000  -0.0833281), wk =   0.0023148
        k(  838) = (  -0.5000000   0.3333333   0.0000000), wk =   0.0023148
        k(  839) = (  -0.5000000   0.3333333   0.0833281), wk =   0.0023148
        k(  840) = (  -0.5000000   0.3333333   0.1666561), wk =   0.0023148
        k(  841) = (  -0.5000000   0.3333333   0.2499842), wk =   0.0023148
        k(  842) = (  -0.5000000   0.3333333   0.3333122), wk =   0.0023148
        k(  843) = (  -0.5000000   0.3333333   0.4166403), wk =   0.0023148
        k(  844) = (  -0.5000000   0.3333333  -0.4999683), wk =   0.0023148
        k(  845) = (  -0.5000000   0.3333333  -0.4166403), wk =   0.0023148
        k(  846) = (  -0.5000000   0.3333333  -0.3333122), wk =   0.0023148
        k(  847) = (  -0.5000000   0.3333333  -0.2499842), wk =   0.0023148
        k(  848) = (  -0.5000000   0.3333333  -0.1666561), wk =   0.0023148
        k(  849) = (  -0.5000000   0.3333333  -0.0833281), wk =   0.0023148
        k(  850) = (  -0.5000000   0.4166667   0.0000000), wk =   0.0023148
        k(  851) = (  -0.5000000   0.4166667   0.0833281), wk =   0.0023148
        k(  852) = (  -0.5000000   0.4166667   0.1666561), wk =   0.0023148
        k(  853) = (  -0.5000000   0.4166667   0.2499842), wk =   0.0023148
        k(  854) = (  -0.5000000   0.4166667   0.3333122), wk =   0.0023148
        k(  855) = (  -0.5000000   0.4166667   0.4166403), wk =   0.0023148
        k(  856) = (  -0.5000000   0.4166667  -0.4999683), wk =   0.0023148
        k(  857) = (  -0.5000000   0.4166667  -0.4166403), wk =   0.0023148
        k(  858) = (  -0.5000000   0.4166667  -0.3333122), wk =   0.0023148
        k(  859) = (  -0.5000000   0.4166667  -0.2499842), wk =   0.0023148
        k(  860) = (  -0.5000000   0.4166667  -0.1666561), wk =   0.0023148
        k(  861) = (  -0.5000000   0.4166667  -0.0833281), wk =   0.0023148
        k(  862) = (  -0.5000000  -0.5000000   0.0000000), wk =   0.0011574
        k(  863) = (  -0.5000000  -0.5000000   0.0833281), wk =   0.0023148
        k(  864) = (  -0.5000000  -0.5000000   0.1666561), wk =   0.0023148
        k(  865) = (  -0.5000000  -0.5000000   0.2499842), wk =   0.0023148
        k(  866) = (  -0.5000000  -0.5000000   0.3333122), wk =   0.0023148
        k(  867) = (  -0.5000000  -0.5000000   0.4166403), wk =   0.0023148
        k(  868) = (  -0.5000000  -0.5000000  -0.4999683), wk =   0.0011574

                       cryst. coord.
        k(    1) = (   0.0000000   0.0000000   0.0000000), wk =   0.0011574
        k(    2) = (   0.0000000   0.0000000   0.0833333), wk =   0.0023148
        k(    3) = (   0.0000000   0.0000000   0.1666667), wk =   0.0023148
        k(    4) = (   0.0000000   0.0000000   0.2500000), wk =   0.0023148
        k(    5) = (   0.0000000   0.0000000   0.3333333), wk =   0.0023148
        k(    6) = (   0.0000000   0.0000000   0.4166667), wk =   0.0023148
        k(    7) = (   0.0000000   0.0000000  -0.5000000), wk =   0.0011574
        k(    8) = (   0.0000000   0.0833333   0.0000000), wk =   0.0023148
        k(    9) = (   0.0000000   0.0833333   0.0833333), wk =   0.0023148
        k(   10) = (   0.0000000   0.0833333   0.1666667), wk =   0.0023148
        k(   11) = (   0.0000000   0.0833333   0.2500000), wk =   0.0023148
        k(   12) = (   0.0000000   0.0833333   0.3333333), wk =   0.0023148
        k(   13) = (   0.0000000   0.0833333   0.4166667), wk =   0.0023148
        k(   14) = (   0.0000000   0.0833333  -0.5000000), wk =   0.0023148
        k(   15) = (   0.0000000   0.0833333  -0.4166667), wk =   0.0023148
        k(   16) = (   0.0000000   0.0833333  -0.3333333), wk =   0.0023148
        k(   17) = (   0.0000000   0.0833333  -0.2500000), wk =   0.0023148
        k(   18) = (   0.0000000   0.0833333  -0.1666667), wk =   0.0023148
        k(   19) = (   0.0000000   0.0833333  -0.0833333), wk =   0.0023148
        k(   20) = (   0.0000000   0.1666667   0.0000000), wk =   0.0023148
        k(   21) = (   0.0000000   0.1666667   0.0833333), wk =   0.0023148
        k(   22) = (   0.0000000   0.1666667   0.1666667), wk =   0.0023148
        k(   23) = (   0.0000000   0.1666667   0.2500000), wk =   0.0023148
        k(   24) = (   0.0000000   0.1666667   0.3333333), wk =   0.0023148
        k(   25) = (   0.0000000   0.1666667   0.4166667), wk =   0.0023148
        k(   26) = (   0.0000000   0.1666667  -0.5000000), wk =   0.0023148
        k(   27) = (   0.0000000   0.1666667  -0.4166667), wk =   0.0023148
        k(   28) = (   0.0000000   0.1666667  -0.3333333), wk =   0.0023148
        k(   29) = (   0.0000000   0.1666667  -0.2500000), wk =   0.0023148
        k(   30) = (   0.0000000   0.1666667  -0.1666667), wk =   0.0023148
        k(   31) = (   0.0000000   0.1666667  -0.0833333), wk =   0.0023148
        k(   32) = (   0.0000000   0.2500000   0.0000000), wk =   0.0023148
        k(   33) = (   0.0000000   0.2500000   0.0833333), wk =   0.0023148
        k(   34) = (   0.0000000   0.2500000   0.1666667), wk =   0.0023148
        k(   35) = (   0.0000000   0.2500000   0.2500000), wk =   0.0023148
        k(   36) = (   0.0000000   0.2500000   0.3333333), wk =   0.0023148
        k(   37) = (   0.0000000   0.2500000   0.4166667), wk =   0.0023148
        k(   38) = (   0.0000000   0.2500000  -0.5000000), wk =   0.0023148
        k(   39) = (   0.0000000   0.2500000  -0.4166667), wk =   0.0023148
        k(   40) = (   0.0000000   0.2500000  -0.3333333), wk =   0.0023148
        k(   41) = (   0.0000000   0.2500000  -0.2500000), wk =   0.0023148
        k(   42) = (   0.0000000   0.2500000  -0.1666667), wk =   0.0023148
        k(   43) = (   0.0000000   0.2500000  -0.0833333), wk =   0.0023148
        k(   44) = (   0.0000000   0.3333333   0.0000000), wk =   0.0023148
        k(   45) = (   0.0000000   0.3333333   0.0833333), wk =   0.0023148
        k(   46) = (   0.0000000   0.3333333   0.1666667), wk =   0.0023148
        k(   47) = (   0.0000000   0.3333333   0.2500000), wk =   0.0023148
        k(   48) = (   0.0000000   0.3333333   0.3333333), wk =   0.0023148
        k(   49) = (   0.0000000   0.3333333   0.4166667), wk =   0.0023148
        k(   50) = (   0.0000000   0.3333333  -0.5000000), wk =   0.0023148
        k(   51) = (   0.0000000   0.3333333  -0.4166667), wk =   0.0023148
        k(   52) = (   0.0000000   0.3333333  -0.3333333), wk =   0.0023148
        k(   53) = (   0.0000000   0.3333333  -0.2500000), wk =   0.0023148
        k(   54) = (   0.0000000   0.3333333  -0.1666667), wk =   0.0023148
        k(   55) = (   0.0000000   0.3333333  -0.0833333), wk =   0.0023148
        k(   56) = (   0.0000000   0.4166667   0.0000000), wk =   0.0023148
        k(   57) = (   0.0000000   0.4166667   0.0833333), wk =   0.0023148
        k(   58) = (   0.0000000   0.4166667   0.1666667), wk =   0.0023148
        k(   59) = (   0.0000000   0.4166667   0.2500000), wk =   0.0023148
        k(   60) = (   0.0000000   0.4166667   0.3333333), wk =   0.0023148
        k(   61) = (   0.0000000   0.4166667   0.4166667), wk =   0.0023148
        k(   62) = (   0.0000000   0.4166667  -0.5000000), wk =   0.0023148
        k(   63) = (   0.0000000   0.4166667  -0.4166667), wk =   0.0023148
        k(   64) = (   0.0000000   0.4166667  -0.3333333), wk =   0.0023148
        k(   65) = (   0.0000000   0.4166667  -0.2500000), wk =   0.0023148
        k(   66) = (   0.0000000   0.4166667  -0.1666667), wk =   0.0023148
        k(   67) = (   0.0000000   0.4166667  -0.0833333), wk =   0.0023148
        k(   68) = (   0.0000000  -0.5000000   0.0000000), wk =   0.0011574
        k(   69) = (   0.0000000  -0.5000000   0.0833333), wk =   0.0023148
        k(   70) = (   0.0000000  -0.5000000   0.1666667), wk =   0.0023148
        k(   71) = (   0.0000000  -0.5000000   0.2500000), wk =   0.0023148
        k(   72) = (   0.0000000  -0.5000000   0.3333333), wk =   0.0023148
        k(   73) = (   0.0000000  -0.5000000   0.4166667), wk =   0.0023148
        k(   74) = (   0.0000000  -0.5000000  -0.5000000), wk =   0.0011574
        k(   75) = (   0.0833333   0.0000000   0.0000000), wk =   0.0023148
        k(   76) = (   0.0833333   0.0000000   0.0833333), wk =   0.0023148
        k(   77) = (   0.0833333   0.0000000   0.1666667), wk =   0.0023148
        k(   78) = (   0.0833333   0.0000000   0.2500000), wk =   0.0023148
        k(   79) = (   0.0833333   0.0000000   0.3333333), wk =   0.0023148
        k(   80) = (   0.0833333   0.0000000   0.4166667), wk =   0.0023148
        k(   81) = (   0.0833333   0.0000000  -0.5000000), wk =   0.0023148
        k(   82) = (   0.0833333   0.0000000  -0.4166667), wk =   0.0023148
        k(   83) = (   0.0833333   0.0000000  -0.3333333), wk =   0.0023148
        k(   84) = (   0.0833333   0.0000000  -0.2500000), wk =   0.0023148
        k(   85) = (   0.0833333   0.0000000  -0.1666667), wk =   0.0023148
        k(   86) = (   0.0833333   0.0000000  -0.0833333), wk =   0.0023148
        k(   87) = (   0.0833333   0.0833333   0.0000000), wk =   0.0023148
        k(   88) = (   0.0833333   0.0833333   0.0833333), wk =   0.0023148
        k(   89) = (   0.0833333   0.0833333   0.1666667), wk =   0.0023148
        k(   90) = (   0.0833333   0.0833333   0.2500000), wk =   0.0023148
        k(   91) = (   0.0833333   0.0833333   0.3333333), wk =   0.0023148
        k(   92) = (   0.0833333   0.0833333   0.4166667), wk =   0.0023148
        k(   93) = (   0.0833333   0.0833333  -0.5000000), wk =   0.0023148
        k(   94) = (   0.0833333   0.0833333  -0.4166667), wk =   0.0023148
        k(   95) = (   0.0833333   0.0833333  -0.3333333), wk =   0.0023148
        k(   96) = (   0.0833333   0.0833333  -0.2500000), wk =   0.0023148
        k(   97) = (   0.0833333   0.0833333  -0.1666667), wk =   0.0023148
        k(   98) = (   0.0833333   0.0833333  -0.0833333), wk =   0.0023148
        k(   99) = (   0.0833333   0.1666667   0.0000000), wk =   0.0023148
        k(  100) = (   0.0833333   0.1666667   0.0833333), wk =   0.0023148
        k(  101) = (   0.0833333   0.1666667   0.1666667), wk =   0.0023148
        k(  102) = (   0.0833333   0.1666667   0.2500000), wk =   0.0023148
        k(  103) = (   0.0833333   0.1666667   0.3333333), wk =   0.0023148
        k(  104) = (   0.0833333   0.1666667   0.4166667), wk =   0.0023148
        k(  105) = (   0.0833333   0.1666667  -0.5000000), wk =   0.0023148
        k(  106) = (   0.0833333   0.1666667  -0.4166667), wk =   0.0023148
        k(  107) = (   0.0833333   0.1666667  -0.3333333), wk =   0.0023148
[...]
     1.0000   1.0000   1.0000   1.0000   1.0000   1.0000   1.0000   1.0000
     1.0000   1.0000   1.0000   1.0000   1.0000   1.0000   1.0000   1.0000
     0.0000   0.0000   0.0000   0.0000

          k =-0.5000 0.2500-0.5000 (  4444 PWs)   bands (ev):

    -3.2120  -3.2118  -3.2075  -3.2070   1.7559   1.7563   1.7598   1.7606
     8.7041   8.7049   8.7073   8.7095  10.3712  10.3719  10.3729  10.3730
    21.4913  21.4914  21.4921  21.4923

     occupation numbers 
     1.0000   1.0000   1.0000   1.0000   1.0000   1.0000   1.0000   1.0000
     1.0000   1.0000   1.0000   1.0000   1.0000   1.0000   1.0000   1.0000
     0.0000   0.0000   0.0000   0.0000

          k =-0.5000 0.2500-0.4166 (  4444 PWs)   bands (ev):

    -3.8265  -3.8264  -2.5309  -2.5307   1.2089   1.2096   2.4591   2.4596
     8.2181   8.2186   9.1601   9.1610   9.9110   9.9110  10.5364  10.5368
    21.3359  21.3361  21.5986  21.5996

     occupation numbers 
     1.0000   1.0000   1.0000   1.0000   1.0000   1.0000   1.0000   1.0000
     1.0000   1.0000   1.0000   1.0000   1.0000   1.0000   1.0000   1.0000
     0.0000   0.0000   0.0000   0.0000

          k =-0.5000 0.2500-0.3333 (  4440 PWs)   bands (ev):

    -4.3503  -4.3502  -1.8657  -1.8654   0.8864   0.8872   3.2770   3.2776
     7.6727   7.6728   9.2534   9.2537   9.5596   9.5605  10.3920  10.3924
    20.8656  20.8659  21.4177  21.4183

     occupation numbers 
     1.0000   1.0000   1.0000   1.0000   1.0000   1.0000   1.0000   1.0000
     1.0000   1.0000   1.0000   1.0000   1.0000   1.0000   1.0000   1.0000
     0.0000   0.0000   0.0000   0.0000

          k =-0.5000 0.2500-0.2500 (  4426 PWs)   bands (ev):

    -4.7666  -4.7666  -1.3793  -1.3788   0.9464   0.9474   4.1859   4.1865
     6.9786   6.9788   8.6004   8.6013   9.7610   9.7612  10.0855  10.0865
    20.2944  20.2947  21.5939  21.5949

     occupation numbers 
     1.0000   1.0000   1.0000   1.0000   1.0000   1.0000   1.0000   1.0000
     1.0000   1.0000   1.0000   1.0000   1.0000   1.0000   1.0000   1.0000
     0.0000   0.0000   0.0000   0.0000

          k =-0.5000 0.2500-0.1667 (  4422 PWs)   bands (ev):

    -5.0679  -5.0679  -1.1988  -1.1983   1.4937   1.4947   5.1560   5.1568
     6.0666   6.0670   8.1410   8.1420   9.2028   9.2034  10.2119  10.2135
    19.9818  19.9824  21.6745  21.6758

     occupation numbers 
     1.0000   1.0000   1.0000   1.0000   1.0000   1.0000   1.0000   1.0000
     1.0000   1.0000   1.0000   1.0000   1.0000   1.0000   1.0000   1.0000
     0.0000   0.0000   0.0000   0.0000

          k =-0.5000 0.2500-0.0833 (  4418 PWs)   bands (ev):

    -5.2501  -5.2501  -1.1894  -1.1890   2.3247   2.3258   5.0584   5.0587
     6.1320   6.1330   7.8944   7.8955   8.3911   8.3914  10.3485  10.3501
    19.8739  19.8746  21.6719  21.6732

     occupation numbers 
     1.0000   1.0000   1.0000   1.0000   1.0000   1.0000   1.0000   1.0000
     1.0000   1.0000   1.0000   1.0000   1.0000   1.0000   1.0000   1.0000
     0.0000   0.0000   0.0000   0.0000

          k =-0.5000 0.3333 0.0000 (  4426 PWs)   bands (ev):

    -4.8842  -4.8841  -2.0989  -2.0987   3.4019   3.4033   4.7114   4.7116
     6.0191   6.0207   7.0563   7.0567   8.8354   8.8366  10.5828  10.5844
    21.1083  21.1092  21.1950  21.1962

     occupation numbers 
     1.0000   1.0000   1.0000   1.0000   1.0000   1.0000   1.0000   1.0000
     1.0000   1.0000   1.0000   1.0000   1.0000   1.0000   1.0000   1.0000
     0.0000   0.0000   0.0000   0.0000

          k =-0.5000 0.3333 0.0833 (  4422 PWs)   bands (ev):

    -4.8242  -4.8242  -2.0607  -2.0604   2.7181   2.7191   5.3093   5.3103
     5.4434   5.4437   7.7507   7.7510   8.8807   8.8819  10.5638  10.5654
    21.0302  21.0310  21.2257  21.2270

     occupation numbers 
     1.0000   1.0000   1.0000   1.0000   1.0000   1.0000   1.0000   1.0000
     1.0000   1.0000   1.0000   1.0000   1.0000   1.0000   1.0000   1.0000
     0.0000   0.0000   0.0000   0.0000

          k =-0.5000 0.3333 0.1667 (  4434 PWs)   bands (ev):

    -4.6452  -4.6452  -1.9614  -1.9611   1.7298   1.7307   4.2798   4.2806
     6.5755   6.5760   8.7164   8.7170   9.0177   9.0190  10.5028  10.5044
    20.8929  20.8936  21.3099  21.3112

     occupation numbers 
     1.0000   1.0000   1.0000   1.0000   1.0000   1.0000   1.0000   1.0000
     1.0000   1.0000   1.0000   1.0000   1.0000   1.0000   1.0000   1.0000
     0.0000   0.0000   0.0000   0.0000

          k =-0.5000 0.3333 0.2500 (  4440 PWs)   bands (ev):

    -4.3502  -4.3502  -1.8656  -1.8651   0.8861   0.8870   3.2769   3.2775
     7.6719   7.6724   9.2536   9.2548   9.5589   9.5597  10.3921  10.3937
    20.8656  20.8661  21.4180  21.4194

     occupation numbers 
     1.0000   1.0000   1.0000   1.0000   1.0000   1.0000   1.0000   1.0000
     1.0000   1.0000   1.0000   1.0000   1.0000   1.0000   1.0000   1.0000
     0.0000   0.0000   0.0000   0.0000

          k =-0.5000 0.3333 0.3333 (  4442 PWs)   bands (ev):

    -3.9457  -3.9456  -1.9364  -1.9359   0.4026   0.4036   2.3530   2.3536
     8.5829   8.5832   9.6101   9.6109  10.1011  10.1014  10.2837  10.2846
    21.0634  21.0638  21.4872  21.4884

     occupation numbers 
     1.0000   1.0000   1.0000   1.0000   1.0000   1.0000   1.0000   1.0000
     1.0000   1.0000   1.0000   1.0000   1.0000   1.0000   1.0000   1.0000
     0.0000   0.0000   0.0000   0.0000

          k =-0.5000 0.3333 0.4166 (  4444 PWs)   bands (ev):

    -3.4449  -3.4448  -2.3180  -2.3176   0.4414   0.4423   1.5400   1.5406
     9.2078   9.2080   9.9390   9.9399  10.0671  10.0673  10.4910  10.4915
    21.5006  21.5012  21.5088  21.5093

     occupation numbers 
     1.0000   1.0000   1.0000   1.0000   1.0000   1.0000   1.0000   1.0000
     1.0000   1.0000   1.0000   1.0000   1.0000   1.0000   1.0000   1.0000
     0.0000   0.0000   0.0000   0.0000

          k =-0.5000 0.3333-0.5000 (  4452 PWs)   bands (ev):

    -2.8798  -2.8793  -2.8755  -2.8746   0.8748   0.8755   0.8786   0.8793
     9.6231   9.6241   9.6260   9.6286  10.4242  10.4251  10.4258  10.4260
    21.6376  21.6378  21.6383  21.6386

     occupation numbers 
     1.0000   1.0000   1.0000   1.0000   1.0000   1.0000   1.0000   1.0000
     1.0000   1.0000   1.0000   1.0000   1.0000   1.0000   1.0000   1.0000
     0.0000   0.0000   0.0000   0.0000

          k =-0.5000 0.3333-0.4166 (  4444 PWs)   bands (ev):

    -3.4449  -3.4448  -2.3180  -2.3176   0.4414   0.4423   1.5400   1.5406
     9.2078   9.2080   9.9390   9.9399  10.0671  10.0673  10.4910  10.4915
    21.5006  21.5012  21.5088  21.5093

     occupation numbers 
     1.0000   1.0000   1.0000   1.0000   1.0000   1.0000   1.0000   1.0000
     1.0000   1.0000   1.0000   1.0000   1.0000   1.0000   1.0000   1.0000
     0.0000   0.0000   0.0000   0.0000

          k =-0.5000 0.3333-0.3333 (  4442 PWs)   bands (ev):

    -3.9457  -3.9456  -1.9364  -1.9359   0.4026   0.4036   2.3530   2.3536
     8.5829   8.5832   9.6101   9.6109  10.1011  10.1014  10.2837  10.2846
    21.0634  21.0638  21.4872  21.4884

     occupation numbers 
     1.0000   1.0000   1.0000   1.0000   1.0000   1.0000   1.0000   1.0000
     1.0000   1.0000   1.0000   1.0000   1.0000   1.0000   1.0000   1.0000
     0.0000   0.0000   0.0000   0.0000

          k =-0.5000 0.3333-0.2500 (  4440 PWs)   bands (ev):

    -4.3502  -4.3502  -1.8656  -1.8651   0.8861   0.8870   3.2769   3.2775
     7.6719   7.6724   9.2536   9.2548   9.5589   9.5597  10.3921  10.3937
    20.8656  20.8661  21.4180  21.4194

     occupation numbers 
     1.0000   1.0000   1.0000   1.0000   1.0000   1.0000   1.0000   1.0000
     1.0000   1.0000   1.0000   1.0000   1.0000   1.0000   1.0000   1.0000
     0.0000   0.0000   0.0000   0.0000

          k =-0.5000 0.3333-0.1667 (  4434 PWs)   bands (ev):

    -4.6452  -4.6452  -1.9614  -1.9611   1.7298   1.7307   4.2798   4.2806
     6.5755   6.5760   8.7164   8.7170   9.0177   9.0190  10.5028  10.5044
    20.8929  20.8936  21.3099  21.3112

     occupation numbers 
     1.0000   1.0000   1.0000   1.0000   1.0000   1.0000   1.0000   1.0000
     1.0000   1.0000   1.0000   1.0000   1.0000   1.0000   1.0000   1.0000
     0.0000   0.0000   0.0000   0.0000

          k =-0.5000 0.3333-0.0833 (  4422 PWs)   bands (ev):

    -4.8242  -4.8242  -2.0607  -2.0604   2.7181   2.7191   5.3093   5.3103
     5.4434   5.4437   7.7507   7.7510   8.8807   8.8819  10.5638  10.5654
    21.0302  21.0310  21.2257  21.2270

     occupation numbers 
     1.0000   1.0000   1.0000   1.0000   1.0000   1.0000   1.0000   1.0000
     1.0000   1.0000   1.0000   1.0000   1.0000   1.0000   1.0000   1.0000
     0.0000   0.0000   0.0000   0.0000

          k =-0.5000 0.4167 0.0000 (  4436 PWs)   bands (ev):

    -4.3416  -4.3415  -2.9368  -2.9366   3.9670   3.9684   5.1395   5.1398
     5.2840   5.2855   6.3408   6.3412   9.6834   9.6847  10.5605  10.5620
    21.0331  21.0343  21.7353  21.7364

     occupation numbers 
     1.0000   1.0000   1.0000   1.0000   1.0000   1.0000   1.0000   1.0000
     1.0000   1.0000   1.0000   1.0000   1.0000   1.0000   1.0000   1.0000
     0.0000   0.0000   0.0000   0.0000

          k =-0.5000 0.4167 0.0833 (  4426 PWs)   bands (ev):

    -4.2833  -4.2832  -2.8870  -2.8868   3.2256   3.2265   4.5360   4.5370
     5.9206   5.9209   7.0982   7.0985   9.7105   9.7118  10.5601  10.5616
    21.0707  21.0720  21.7429  21.7440

     occupation numbers 
     1.0000   1.0000   1.0000   1.0000   1.0000   1.0000   1.0000   1.0000
     1.0000   1.0000   1.0000   1.0000   1.0000   1.0000   1.0000   1.0000
     0.0000   0.0000   0.0000   0.0000

          k =-0.5000 0.4167 0.1667 (  4434 PWs)   bands (ev):

    -4.1098  -4.1097  -2.7436  -2.7434   2.1747   2.1755   3.4758   3.4765
     7.0830   7.0835   8.1711   8.1716   9.7890   9.7903  10.5554  10.5569
    21.1780  21.1793  21.7257  21.7264

     occupation numbers 
     1.0000   1.0000   1.0000   1.0000   1.0000   1.0000   1.0000   1.0000
     1.0000   1.0000   1.0000   1.0000   1.0000   1.0000   1.0000   1.0000
     0.0000   0.0000   0.0000   0.0000

          k =-0.5000 0.4167 0.2500 (  4444 PWs)   bands (ev):

    -3.8264  -3.8262  -2.5307  -2.5304   1.2086   1.2094   2.4588   2.4595
     8.2172   8.2178   9.1593   9.1601   9.9112   9.9125  10.5367  10.5382
    21.3365  21.3378  21.5991  21.5992

     occupation numbers 
     1.0000   1.0000   1.0000   1.0000   1.0000   1.0000   1.0000   1.0000
     1.0000   1.0000   1.0000   1.0000   1.0000   1.0000   1.0000   1.0000
     0.0000   0.0000   0.0000   0.0000

          k =-0.5000 0.4167 0.3333 (  4444 PWs)   bands (ev):

    -3.4449  -3.4447  -2.3179  -2.3175   0.4413   0.4421   1.5399   1.5405
     9.2069   9.2076   9.9382   9.9391  10.0672  10.0684  10.4914  10.4929
    21.5007  21.5011  21.5091  21.5106

     occupation numbers 
     1.0000   1.0000   1.0000   1.0000   1.0000   1.0000   1.0000   1.0000
     1.0000   1.0000   1.0000   1.0000   1.0000   1.0000   1.0000   1.0000
     0.0000   0.0000   0.0000   0.0000

          k =-0.5000 0.4167 0.4166 (  4440 PWs)   bands (ev):

    -2.9936  -2.9933  -2.2739  -2.2734   0.0575   0.0584   0.7635   0.7642
     9.9220   9.9224  10.2589  10.2597  10.3737  10.3740  10.4269  10.4278
    21.5781  21.5786  21.6361  21.6373

     occupation numbers 
     1.0000   1.0000   1.0000   1.0000   1.0000   1.0000   1.0000   1.0000
     1.0000   1.0000   1.0000   1.0000   1.0000   1.0000   1.0000   1.0000
     0.0000   0.0000   0.0000   0.0000

          k =-0.5000 0.4167-0.5000 (  4440 PWs)   bands (ev):

    -2.5482  -2.5472  -2.5446  -2.5428   0.2093   0.2106   0.2128   0.2132
    10.2519  10.2533  10.2543  10.2574  10.4638  10.4649  10.4653  10.4657
    21.7334  21.7341  21.7345  21.7346

     occupation numbers 
     1.0000   1.0000   1.0000   1.0000   1.0000   1.0000   1.0000   1.0000
     1.0000   1.0000   1.0000   1.0000   1.0000   1.0000   1.0000   1.0000
     0.0000   0.0000   0.0000   0.0000

          k =-0.5000 0.4167-0.4166 (  4440 PWs)   bands (ev):

    -2.9936  -2.9933  -2.2739  -2.2734   0.0575   0.0584   0.7635   0.7642
     9.9220   9.9224  10.2589  10.2597  10.3737  10.3740  10.4269  10.4278
    21.5781  21.5786  21.6361  21.6373

     occupation numbers 
     1.0000   1.0000   1.0000   1.0000   1.0000   1.0000   1.0000   1.0000
     1.0000   1.0000   1.0000   1.0000   1.0000   1.0000   1.0000   1.0000
     0.0000   0.0000   0.0000   0.0000

          k =-0.5000 0.4167-0.3333 (  4444 PWs)   bands (ev):

    -3.4449  -3.4447  -2.3179  -2.3175   0.4413   0.4421   1.5399   1.5405
     9.2069   9.2076   9.9382   9.9391  10.0672  10.0684  10.4914  10.4929
    21.5007  21.5011  21.5091  21.5106

     occupation numbers 
     1.0000   1.0000   1.0000   1.0000   1.0000   1.0000   1.0000   1.0000
     1.0000   1.0000   1.0000   1.0000   1.0000   1.0000   1.0000   1.0000
     0.0000   0.0000   0.0000   0.0000

          k =-0.5000 0.4167-0.2500 (  4444 PWs)   bands (ev):

    -3.8264  -3.8262  -2.5307  -2.5304   1.2086   1.2094   2.4588   2.4595
     8.2172   8.2178   9.1593   9.1601   9.9112   9.9125  10.5367  10.5382
    21.3365  21.3378  21.5991  21.5992

     occupation numbers 
     1.0000   1.0000   1.0000   1.0000   1.0000   1.0000   1.0000   1.0000
     1.0000   1.0000   1.0000   1.0000   1.0000   1.0000   1.0000   1.0000
     0.0000   0.0000   0.0000   0.0000

          k =-0.5000 0.4167-0.1667 (  4434 PWs)   bands (ev):

    -4.1098  -4.1097  -2.7436  -2.7434   2.1747   2.1755   3.4758   3.4765
     7.0830   7.0835   8.1711   8.1716   9.7890   9.7903  10.5554  10.5569
    21.1780  21.1793  21.7257  21.7264

     occupation numbers 
     1.0000   1.0000   1.0000   1.0000   1.0000   1.0000   1.0000   1.0000
     1.0000   1.0000   1.0000   1.0000   1.0000   1.0000   1.0000   1.0000
     0.0000   0.0000   0.0000   0.0000

          k =-0.5000 0.4167-0.0833 (  4426 PWs)   bands (ev):

    -4.2833  -4.2832  -2.8870  -2.8868   3.2256   3.2265   4.5360   4.5370
     5.9206   5.9209   7.0982   7.0985   9.7105   9.7118  10.5601  10.5616
    21.0707  21.0720  21.7429  21.7440

     occupation numbers 
     1.0000   1.0000   1.0000   1.0000   1.0000   1.0000   1.0000   1.0000
     1.0000   1.0000   1.0000   1.0000   1.0000   1.0000   1.0000   1.0000
     0.0000   0.0000   0.0000   0.0000

          k =-0.5000-0.5000 0.0000 (  4468 PWs)   bands (ev):

    -3.6906  -3.6894  -3.6893  -3.6878   4.5957   4.5957   4.5971   4.5972
     5.6913   5.6913   5.6914   5.6919  10.2680  10.2701  10.2701  10.2749
    21.2194  21.2206  21.2207  21.2243

     occupation numbers 
     1.0000   1.0000   1.0000   1.0000   1.0000   1.0000   1.0000   1.0000
     1.0000   1.0000   1.0000   1.0000   1.0000   1.0000   1.0000   1.0000
     0.0000   0.0000   0.0000   0.0000

          k =-0.5000-0.5000 0.0833 (  4452 PWs)   bands (ev):

    -3.6353  -3.6340  -3.6340  -3.6324   3.8356   3.8360   3.8367   3.8367
     6.4784   6.4786   6.4788   6.4788  10.2814  10.2835  10.2835  10.2884
    21.2539  21.2551  21.2552  21.2588

     occupation numbers 
     1.0000   1.0000   1.0000   1.0000   1.0000   1.0000   1.0000   1.0000
     1.0000   1.0000   1.0000   1.0000   1.0000   1.0000   1.0000   1.0000
     0.0000   0.0000   0.0000   0.0000

          k =-0.5000-0.5000 0.1667 (  4436 PWs)   bands (ev):

    -3.4720  -3.4706  -3.4706  -3.4689   2.7665   2.7671   2.7675   2.7676
     7.6171   7.6172   7.6177   7.6177  10.3185  10.3207  10.3207  10.3256
    21.3511  21.3524  21.3524  21.3562

     occupation numbers 
     1.0000   1.0000   1.0000   1.0000   1.0000   1.0000   1.0000   1.0000
     1.0000   1.0000   1.0000   1.0000   1.0000   1.0000   1.0000   1.0000
     0.0000   0.0000   0.0000   0.0000

          k =-0.5000-0.5000 0.2500 (  4444 PWs)   bands (ev):

    -3.2110  -3.2095  -3.2095  -3.2076   1.7570   1.7580   1.7582   1.7582
     8.7052   8.7053   8.7059   8.7060  10.3703  10.3724  10.3724  10.3774
    21.4911  21.4924  21.4924  21.4964

     occupation numbers 
     1.0000   1.0000   1.0000   1.0000   1.0000   1.0000   1.0000   1.0000
     1.0000   1.0000   1.0000   1.0000   1.0000   1.0000   1.0000   1.0000
     0.0000   0.0000   0.0000   0.0000

          k =-0.5000-0.5000 0.3333 (  4452 PWs)   bands (ev):

    -2.8790  -2.8773  -2.8773  -2.8750   0.8757   0.8772   0.8772   0.8774
     9.6241   9.6242   9.6250   9.6250  10.4232  10.4254  10.4254  10.4305
    21.6372  21.6383  21.6383  21.6424

     occupation numbers 
     1.0000   1.0000   1.0000   1.0000   1.0000   1.0000   1.0000   1.0000
     1.0000   1.0000   1.0000   1.0000   1.0000   1.0000   1.0000   1.0000
     0.0000   0.0000   0.0000   0.0000

          k =-0.5000-0.5000 0.4166 (  4440 PWs)   bands (ev):

    -2.5479  -2.5459  -2.5459  -2.5430   0.2097   0.2118   0.2119   0.2124
    10.2528  10.2529  10.2539  10.2539  10.4628  10.4650  10.4650  10.4702
    21.7332  21.7335  21.7335  21.7377

     occupation numbers 
     1.0000   1.0000   1.0000   1.0000   1.0000   1.0000   1.0000   1.0000
     1.0000   1.0000   1.0000   1.0000   1.0000   1.0000   1.0000   1.0000
     0.0000   0.0000   0.0000   0.0000

          k =-0.5000-0.5000-0.5000 (  4416 PWs)   bands (ev):

    -2.3892  -2.3869  -2.3869  -2.3836  -0.0617  -0.0591  -0.0591  -0.0583
    10.4775  10.4788  10.4788  10.4797  10.4797  10.4798  10.4798  10.4849
    21.7466  21.7466  21.7469  21.7472

     occupation numbers 
     1.0000   1.0000   1.0000   1.0000   1.0000   1.0000   1.0000   1.0000
     1.0000   1.0000   1.0000   1.0000   1.0000   1.0000   1.0000   1.0000
     0.0000   0.0000   0.0000   0.0000

     the Fermi energy is    17.4363 ev
     (compare with:    15.9610 eV, computed in scf)

     Writing all to output data dir ./C.save/
 
     init_run     :      0.04s CPU      0.05s WALL (       1 calls)
     electrons    :     71.09s CPU     76.55s WALL (       1 calls)

     Called by init_run:
     wfcinit      :      0.00s CPU      0.00s WALL (       1 calls)
     wfcinit:atom :      0.02s CPU      0.03s WALL (     434 calls)
     wfcinit:wfcr :      2.20s CPU      2.32s WALL (     434 calls)
     potinit      :      0.00s CPU      0.00s WALL (       1 calls)
     hinit0       :      0.02s CPU      0.03s WALL (       1 calls)

     Called by electrons:
     c_bands      :     70.98s CPU     76.43s WALL (       1 calls)
     v_of_rho     :      0.00s CPU      0.00s WALL (       1 calls)
     v_h          :      0.00s CPU      0.00s WALL (       1 calls)
     v_xc         :      0.00s CPU      0.00s WALL (       1 calls)
     newd         :      0.00s CPU      0.00s WALL (       1 calls)

     Called by c_bands:
     init_us_2    :      0.03s CPU      0.03s WALL (     434 calls)
     init_us_2:cp :      0.03s CPU      0.03s WALL (     434 calls)
     ccgdiagg     :     57.89s CPU     62.94s WALL (    1452 calls)
     wfcrot       :      5.12s CPU      5.42s WALL (    1452 calls)

     Called by sum_band:

     Called by *cgdiagg:
     h_psi        :     43.56s CPU     47.24s WALL (  254362 calls)
     s_psi        :      5.34s CPU      5.83s WALL (  507272 calls)

     Called by h_psi:
     h_psi:calbec :      4.39s CPU      4.77s WALL (  254362 calls)
     vloc_psi     :     35.08s CPU     38.03s WALL (  254362 calls)
     add_vuspsi   :      2.80s CPU      3.05s WALL (  254362 calls)
     hs_1psi      :     43.04s CPU     46.78s WALL (  252910 calls)
     s_1psi       :      7.33s CPU      7.96s WALL (  252910 calls)

     General routines
     calbec       :      7.65s CPU      8.33s WALL (  507272 calls)
     fft          :      0.00s CPU      0.01s WALL (      12 calls)
     fftw         :     31.72s CPU     34.38s WALL (  574316 calls)
     davcio       :      0.04s CPU      0.05s WALL (     868 calls)
 
     Parallel routines
 
     PWSCF        :   1m12.01s CPU   1m17.95s WALL

 
   This run was terminated on:  19: 3:11  21Nov2024            

=------------------------------------------------------------------------------=
   JOB DONE.
=------------------------------------------------------------------------------=
