
     Program PWSCF v.7.2 starts on 22Nov2024 at 14:52:35 

     This program is part of the open-source Quantum ESPRESSO suite
     for quantum simulation of materials; please cite
         "P. Giannozzi et al., J. Phys.:Condens. Matter 21 395502 (2009);
         "P. Giannozzi et al., J. Phys.:Condens. Matter 29 465901 (2017);
         "P. Giannozzi et al., J. Chem. Phys. 152 154105 (2020);
          URL http://www.quantum-espresso.org", 
     in publications or presentations arising from this work. More details at
     http://www.quantum-espresso.org/quote

     Parallel version (MPI), running on    32 processors

     MPI processes distributed on     1 nodes
     485735 MiB available memory on the printing compute node when the environment starts
 
     Waiting for input...
     Reading input from standard input

     Current dimensions of program PWSCF are:
     Max number of different atomic species (ntypx) = 10
     Max number of k-points (npk) =  40000
     Max angular momentum in pseudopotentials (lmaxx) =  4

     Atomic positions and unit cell read from directory:
     ./C.save/
 

     IMPORTANT: XC functional enforced from input :
     Exchange-correlation= PBE
                           (   1   4   3   4   0   0   0)
     Any further DFT definition will be discarded
     Please, verify this is what you really want

     Found identity + (  0.0000  0.5000 -0.5000) symmetry
     This is a supercell, fractional translations are disabled
 
     K-points division:     npool     =       4
     R & G space division:  proc/nbgrp/npool/nimage =       8
     Subspace diagonalization in iterative solution of the eigenvalue problem:
     a serial algorithm will be used

 
     Parallelization info
     --------------------
     sticks:   dense  smooth     PW     G-vecs:    dense   smooth      PW
     Min          72      72     22                 1304     1304     232
     Max          73      73     24                 1307     1307     235
     Sum         577     577    185                10443    10443    1863
 
     Using Slab Decomposition
 


     bravais-lattice index     =            0
     lattice parameter (alat)  =       6.7471  a.u.
     unit-cell volume          =     307.1442 (a.u.)^3
     number of atoms/cell      =            8
     number of atomic types    =            1
     number of electrons       =        32.00
     number of Kohn-Sham states=           48
     kinetic-energy cutoff     =      40.0000  Ry
     charge density cutoff     =     160.0000  Ry
     Exchange-correlation= PBE
                           (   1   4   3   4   0   0   0)

     celldm(1)=   6.747053  celldm(2)=   0.000000  celldm(3)=   0.000000
     celldm(4)=   0.000000  celldm(5)=   0.000000  celldm(6)=   0.000000

     crystal axes: (cart. coord. in units of alat)
               a(1) = (   1.000000   0.000000   0.000000 )  
               a(2) = (   0.000000   1.000000   0.000000 )  
               a(3) = (   0.000000   0.000000   1.000000 )  

     reciprocal axes: (cart. coord. in units 2 pi/alat)
               b(1) = (  1.000000  0.000000  0.000000 )  
               b(2) = (  0.000000  1.000000  0.000000 )  
               b(3) = (  0.000000  0.000000  1.000000 )  


     PseudoPot. # 1 for C  read from file:
     ./C.pbe-n-rrkjus_psl.1.0.0.UPF
     MD5 check sum: 1fdd950c42eb37d8afe3dd2f8d12311e
     Pseudo is Ultrasoft + core correction, Zval =  4.0
     Generated using &quot;atomic&quot; code by A. Dal Corso  v.6.3MaX
     Using radial grid of 1073 points,  4 beta functions with: 
                l(1) =   0
                l(2) =   0
                l(3) =   1
                l(4) =   1
     Q(r) pseudized with 0 coefficients 


     atomic species   valence    mass     pseudopotential
        C              4.00    12.00000     C ( 1.00)

     No symmetry found


                                    s                        frac. trans.

      isym =  1     identity                                     

 cryst.   s( 1) = (     1          0          0      )
                  (     0          1          0      )
                  (     0          0          1      )

 cart.    s( 1) = (  1.0000000  0.0000000  0.0000000 )
                  (  0.0000000  1.0000000  0.0000000 )
                  (  0.0000000  0.0000000  1.0000000 )


   Cartesian axes

     site n.     atom                  positions (alat units)
         1           C   tau(   1) = (   0.2500000   0.7500000   0.2500000  )
         2           C   tau(   2) = (   0.0000000   0.0000000   0.5000000  )
         3           C   tau(   3) = (   0.2500000   0.2500000   0.7500000  )
         4           C   tau(   4) = (   0.0000000   0.5000000   0.0000000  )
         5           C   tau(   5) = (   0.7500000   0.7500000   0.7500000  )
         6           C   tau(   6) = (   0.5000000   0.0000000   0.0000000  )
         7           C   tau(   7) = (   0.7500000   0.2500000   0.2500000  )
         8           C   tau(   8) = (   0.5000000   0.5000000   0.5000000  )

   Crystallographic axes

     site n.     atom                  positions (cryst. coord.)
         1           C   tau(   1) = (  0.2500000  0.7500000  0.2500000  )
         2           C   tau(   2) = (  0.0000000  0.0000000  0.5000000  )
         3           C   tau(   3) = (  0.2500000  0.2500000  0.7500000  )
         4           C   tau(   4) = (  0.0000000  0.5000000  0.0000000  )
         5           C   tau(   5) = (  0.7500000  0.7500000  0.7500000  )
         6           C   tau(   6) = (  0.5000000  0.0000000  0.0000000  )
         7           C   tau(   7) = (  0.7500000  0.2500000  0.2500000  )
         8           C   tau(   8) = (  0.5000000  0.5000000  0.5000000  )

     number of k points=   260 (tetrahedron method)
                       cart. coord. in units 2pi/alat
        k(    1) = (   0.0000000   0.0000000   0.0000000), wk =   0.0039062
        k(    2) = (   0.0000000   0.0000000   0.1250000), wk =   0.0078125
        k(    3) = (   0.0000000   0.0000000   0.2500000), wk =   0.0078125
        k(    4) = (   0.0000000   0.0000000   0.3750000), wk =   0.0078125
        k(    5) = (   0.0000000   0.0000000  -0.5000000), wk =   0.0039062
        k(    6) = (   0.0000000   0.1250000   0.0000000), wk =   0.0078125
        k(    7) = (   0.0000000   0.1250000   0.1250000), wk =   0.0078125
        k(    8) = (   0.0000000   0.1250000   0.2500000), wk =   0.0078125
        k(    9) = (   0.0000000   0.1250000   0.3750000), wk =   0.0078125
        k(   10) = (   0.0000000   0.1250000  -0.5000000), wk =   0.0078125
        k(   11) = (   0.0000000   0.1250000  -0.3750000), wk =   0.0078125
        k(   12) = (   0.0000000   0.1250000  -0.2500000), wk =   0.0078125
        k(   13) = (   0.0000000   0.1250000  -0.1250000), wk =   0.0078125
        k(   14) = (   0.0000000   0.2500000   0.0000000), wk =   0.0078125
        k(   15) = (   0.0000000   0.2500000   0.1250000), wk =   0.0078125
        k(   16) = (   0.0000000   0.2500000   0.2500000), wk =   0.0078125
        k(   17) = (   0.0000000   0.2500000   0.3750000), wk =   0.0078125
        k(   18) = (   0.0000000   0.2500000  -0.5000000), wk =   0.0078125
        k(   19) = (   0.0000000   0.2500000  -0.3750000), wk =   0.0078125
        k(   20) = (   0.0000000   0.2500000  -0.2500000), wk =   0.0078125
        k(   21) = (   0.0000000   0.2500000  -0.1250000), wk =   0.0078125
        k(   22) = (   0.0000000   0.3750000   0.0000000), wk =   0.0078125
        k(   23) = (   0.0000000   0.3750000   0.1250000), wk =   0.0078125
        k(   24) = (   0.0000000   0.3750000   0.2500000), wk =   0.0078125
        k(   25) = (   0.0000000   0.3750000   0.3750000), wk =   0.0078125
        k(   26) = (   0.0000000   0.3750000  -0.5000000), wk =   0.0078125
        k(   27) = (   0.0000000   0.3750000  -0.3750000), wk =   0.0078125
        k(   28) = (   0.0000000   0.3750000  -0.2500000), wk =   0.0078125
        k(   29) = (   0.0000000   0.3750000  -0.1250000), wk =   0.0078125
        k(   30) = (   0.0000000  -0.5000000   0.0000000), wk =   0.0039062
        k(   31) = (   0.0000000  -0.5000000   0.1250000), wk =   0.0078125
        k(   32) = (   0.0000000  -0.5000000   0.2500000), wk =   0.0078125
        k(   33) = (   0.0000000  -0.5000000   0.3750000), wk =   0.0078125
        k(   34) = (   0.0000000  -0.5000000  -0.5000000), wk =   0.0039062
        k(   35) = (   0.1250000   0.0000000   0.0000000), wk =   0.0078125
        k(   36) = (   0.1250000   0.0000000   0.1250000), wk =   0.0078125
        k(   37) = (   0.1250000   0.0000000   0.2500000), wk =   0.0078125
        k(   38) = (   0.1250000   0.0000000   0.3750000), wk =   0.0078125
        k(   39) = (   0.1250000   0.0000000  -0.5000000), wk =   0.0078125
        k(   40) = (   0.1250000   0.0000000  -0.3750000), wk =   0.0078125
        k(   41) = (   0.1250000   0.0000000  -0.2500000), wk =   0.0078125
        k(   42) = (   0.1250000   0.0000000  -0.1250000), wk =   0.0078125
        k(   43) = (   0.1250000   0.1250000   0.0000000), wk =   0.0078125
        k(   44) = (   0.1250000   0.1250000   0.1250000), wk =   0.0078125
        k(   45) = (   0.1250000   0.1250000   0.2500000), wk =   0.0078125
        k(   46) = (   0.1250000   0.1250000   0.3750000), wk =   0.0078125
        k(   47) = (   0.1250000   0.1250000  -0.5000000), wk =   0.0078125
        k(   48) = (   0.1250000   0.1250000  -0.3750000), wk =   0.0078125
        k(   49) = (   0.1250000   0.1250000  -0.2500000), wk =   0.0078125
        k(   50) = (   0.1250000   0.1250000  -0.1250000), wk =   0.0078125
        k(   51) = (   0.1250000   0.2500000   0.0000000), wk =   0.0078125
        k(   52) = (   0.1250000   0.2500000   0.1250000), wk =   0.0078125
        k(   53) = (   0.1250000   0.2500000   0.2500000), wk =   0.0078125
        k(   54) = (   0.1250000   0.2500000   0.3750000), wk =   0.0078125
        k(   55) = (   0.1250000   0.2500000  -0.5000000), wk =   0.0078125
        k(   56) = (   0.1250000   0.2500000  -0.3750000), wk =   0.0078125
        k(   57) = (   0.1250000   0.2500000  -0.2500000), wk =   0.0078125
        k(   58) = (   0.1250000   0.2500000  -0.1250000), wk =   0.0078125
        k(   59) = (   0.1250000   0.3750000   0.0000000), wk =   0.0078125
        k(   60) = (   0.1250000   0.3750000   0.1250000), wk =   0.0078125
        k(   61) = (   0.1250000   0.3750000   0.2500000), wk =   0.0078125
        k(   62) = (   0.1250000   0.3750000   0.3750000), wk =   0.0078125
        k(   63) = (   0.1250000   0.3750000  -0.5000000), wk =   0.0078125
        k(   64) = (   0.1250000   0.3750000  -0.3750000), wk =   0.0078125
        k(   65) = (   0.1250000   0.3750000  -0.2500000), wk =   0.0078125
        k(   66) = (   0.1250000   0.3750000  -0.1250000), wk =   0.0078125
        k(   67) = (   0.1250000  -0.5000000   0.0000000), wk =   0.0078125
        k(   68) = (   0.1250000  -0.5000000   0.1250000), wk =   0.0078125
        k(   69) = (   0.1250000  -0.5000000   0.2500000), wk =   0.0078125
        k(   70) = (   0.1250000  -0.5000000   0.3750000), wk =   0.0078125
        k(   71) = (   0.1250000  -0.5000000  -0.5000000), wk =   0.0078125
        k(   72) = (   0.1250000  -0.5000000  -0.3750000), wk =   0.0078125
        k(   73) = (   0.1250000  -0.5000000  -0.2500000), wk =   0.0078125
        k(   74) = (   0.1250000  -0.5000000  -0.1250000), wk =   0.0078125
        k(   75) = (   0.1250000  -0.3750000   0.0000000), wk =   0.0078125
        k(   76) = (   0.1250000  -0.3750000   0.1250000), wk =   0.0078125
        k(   77) = (   0.1250000  -0.3750000   0.2500000), wk =   0.0078125
        k(   78) = (   0.1250000  -0.3750000   0.3750000), wk =   0.0078125
        k(   79) = (   0.1250000  -0.3750000  -0.5000000), wk =   0.0078125
        k(   80) = (   0.1250000  -0.3750000  -0.3750000), wk =   0.0078125
        k(   81) = (   0.1250000  -0.3750000  -0.2500000), wk =   0.0078125
        k(   82) = (   0.1250000  -0.3750000  -0.1250000), wk =   0.0078125
        k(   83) = (   0.1250000  -0.2500000   0.0000000), wk =   0.0078125
        k(   84) = (   0.1250000  -0.2500000   0.1250000), wk =   0.0078125
        k(   85) = (   0.1250000  -0.2500000   0.2500000), wk =   0.0078125
        k(   86) = (   0.1250000  -0.2500000   0.3750000), wk =   0.0078125
        k(   87) = (   0.1250000  -0.2500000  -0.5000000), wk =   0.0078125
        k(   88) = (   0.1250000  -0.2500000  -0.3750000), wk =   0.0078125
        k(   89) = (   0.1250000  -0.2500000  -0.2500000), wk =   0.0078125
        k(   90) = (   0.1250000  -0.2500000  -0.1250000), wk =   0.0078125
        k(   91) = (   0.1250000  -0.1250000   0.0000000), wk =   0.0078125
        k(   92) = (   0.1250000  -0.1250000   0.1250000), wk =   0.0078125
        k(   93) = (   0.1250000  -0.1250000   0.2500000), wk =   0.0078125
        k(   94) = (   0.1250000  -0.1250000   0.3750000), wk =   0.0078125
        k(   95) = (   0.1250000  -0.1250000  -0.5000000), wk =   0.0078125
        k(   96) = (   0.1250000  -0.1250000  -0.3750000), wk =   0.0078125
        k(   97) = (   0.1250000  -0.1250000  -0.2500000), wk =   0.0078125
        k(   98) = (   0.1250000  -0.1250000  -0.1250000), wk =   0.0078125
        k(   99) = (   0.2500000   0.0000000   0.0000000), wk =   0.0078125
        k(  100) = (   0.2500000   0.0000000   0.1250000), wk =   0.0078125
        k(  101) = (   0.2500000   0.0000000   0.2500000), wk =   0.0078125
        k(  102) = (   0.2500000   0.0000000   0.3750000), wk =   0.0078125
        k(  103) = (   0.2500000   0.0000000  -0.5000000), wk =   0.0078125
        k(  104) = (   0.2500000   0.0000000  -0.3750000), wk =   0.0078125
        k(  105) = (   0.2500000   0.0000000  -0.2500000), wk =   0.0078125
        k(  106) = (   0.2500000   0.0000000  -0.1250000), wk =   0.0078125
        k(  107) = (   0.2500000   0.1250000   0.0000000), wk =   0.0078125
        k(  108) = (   0.2500000   0.1250000   0.1250000), wk =   0.0078125
        k(  109) = (   0.2500000   0.1250000   0.2500000), wk =   0.0078125
        k(  110) = (   0.2500000   0.1250000   0.3750000), wk =   0.0078125
        k(  111) = (   0.2500000   0.1250000  -0.5000000), wk =   0.0078125
        k(  112) = (   0.2500000   0.1250000  -0.3750000), wk =   0.0078125
        k(  113) = (   0.2500000   0.1250000  -0.2500000), wk =   0.0078125
        k(  114) = (   0.2500000   0.1250000  -0.1250000), wk =   0.0078125
        k(  115) = (   0.2500000   0.2500000   0.0000000), wk =   0.0078125
        k(  116) = (   0.2500000   0.2500000   0.1250000), wk =   0.0078125
        k(  117) = (   0.2500000   0.2500000   0.2500000), wk =   0.0078125
        k(  118) = (   0.2500000   0.2500000   0.3750000), wk =   0.0078125
        k(  119) = (   0.2500000   0.2500000  -0.5000000), wk =   0.0078125
        k(  120) = (   0.2500000   0.2500000  -0.3750000), wk =   0.0078125
        k(  121) = (   0.2500000   0.2500000  -0.2500000), wk =   0.0078125
        k(  122) = (   0.2500000   0.2500000  -0.1250000), wk =   0.0078125
        k(  123) = (   0.2500000   0.3750000   0.0000000), wk =   0.0078125
        k(  124) = (   0.2500000   0.3750000   0.1250000), wk =   0.0078125
        k(  125) = (   0.2500000   0.3750000   0.2500000), wk =   0.0078125
        k(  126) = (   0.2500000   0.3750000   0.3750000), wk =   0.0078125
        k(  127) = (   0.2500000   0.3750000  -0.5000000), wk =   0.0078125
        k(  128) = (   0.2500000   0.3750000  -0.3750000), wk =   0.0078125
        k(  129) = (   0.2500000   0.3750000  -0.2500000), wk =   0.0078125
        k(  130) = (   0.2500000   0.3750000  -0.1250000), wk =   0.0078125
        k(  131) = (   0.2500000  -0.5000000   0.0000000), wk =   0.0078125
        k(  132) = (   0.2500000  -0.5000000   0.1250000), wk =   0.0078125
        k(  133) = (   0.2500000  -0.5000000   0.2500000), wk =   0.0078125
        k(  134) = (   0.2500000  -0.5000000   0.3750000), wk =   0.0078125
        k(  135) = (   0.2500000  -0.5000000  -0.5000000), wk =   0.0078125
        k(  136) = (   0.2500000  -0.5000000  -0.3750000), wk =   0.0078125
        k(  137) = (   0.2500000  -0.5000000  -0.2500000), wk =   0.0078125
        k(  138) = (   0.2500000  -0.5000000  -0.1250000), wk =   0.0078125
        k(  139) = (   0.2500000  -0.3750000   0.0000000), wk =   0.0078125
        k(  140) = (   0.2500000  -0.3750000   0.1250000), wk =   0.0078125
        k(  141) = (   0.2500000  -0.3750000   0.2500000), wk =   0.0078125
        k(  142) = (   0.2500000  -0.3750000   0.3750000), wk =   0.0078125
        k(  143) = (   0.2500000  -0.3750000  -0.5000000), wk =   0.0078125
        k(  144) = (   0.2500000  -0.3750000  -0.3750000), wk =   0.0078125
        k(  145) = (   0.2500000  -0.3750000  -0.2500000), wk =   0.0078125
        k(  146) = (   0.2500000  -0.3750000  -0.1250000), wk =   0.0078125
        k(  147) = (   0.2500000  -0.2500000   0.0000000), wk =   0.0078125
        k(  148) = (   0.2500000  -0.2500000   0.1250000), wk =   0.0078125
        k(  149) = (   0.2500000  -0.2500000   0.2500000), wk =   0.0078125
        k(  150) = (   0.2500000  -0.2500000   0.3750000), wk =   0.0078125
        k(  151) = (   0.2500000  -0.2500000  -0.5000000), wk =   0.0078125
        k(  152) = (   0.2500000  -0.2500000  -0.3750000), wk =   0.0078125
        k(  153) = (   0.2500000  -0.2500000  -0.2500000), wk =   0.0078125
        k(  154) = (   0.2500000  -0.2500000  -0.1250000), wk =   0.0078125
        k(  155) = (   0.2500000  -0.1250000   0.0000000), wk =   0.0078125
        k(  156) = (   0.2500000  -0.1250000   0.1250000), wk =   0.0078125
        k(  157) = (   0.2500000  -0.1250000   0.2500000), wk =   0.0078125
        k(  158) = (   0.2500000  -0.1250000   0.3750000), wk =   0.0078125
        k(  159) = (   0.2500000  -0.1250000  -0.5000000), wk =   0.0078125
        k(  160) = (   0.2500000  -0.1250000  -0.3750000), wk =   0.0078125
        k(  161) = (   0.2500000  -0.1250000  -0.2500000), wk =   0.0078125
        k(  162) = (   0.2500000  -0.1250000  -0.1250000), wk =   0.0078125
        k(  163) = (   0.3750000   0.0000000   0.0000000), wk =   0.0078125
        k(  164) = (   0.3750000   0.0000000   0.1250000), wk =   0.0078125
        k(  165) = (   0.3750000   0.0000000   0.2500000), wk =   0.0078125
        k(  166) = (   0.3750000   0.0000000   0.3750000), wk =   0.0078125
        k(  167) = (   0.3750000   0.0000000  -0.5000000), wk =   0.0078125
        k(  168) = (   0.3750000   0.0000000  -0.3750000), wk =   0.0078125
        k(  169) = (   0.3750000   0.0000000  -0.2500000), wk =   0.0078125
        k(  170) = (   0.3750000   0.0000000  -0.1250000), wk =   0.0078125
        k(  171) = (   0.3750000   0.1250000   0.0000000), wk =   0.0078125
        k(  172) = (   0.3750000   0.1250000   0.1250000), wk =   0.0078125
        k(  173) = (   0.3750000   0.1250000   0.2500000), wk =   0.0078125
        k(  174) = (   0.3750000   0.1250000   0.3750000), wk =   0.0078125
        k(  175) = (   0.3750000   0.1250000  -0.5000000), wk =   0.0078125
        k(  176) = (   0.3750000   0.1250000  -0.3750000), wk =   0.0078125
        k(  177) = (   0.3750000   0.1250000  -0.2500000), wk =   0.0078125
        k(  178) = (   0.3750000   0.1250000  -0.1250000), wk =   0.0078125
        k(  179) = (   0.3750000   0.2500000   0.0000000), wk =   0.0078125
        k(  180) = (   0.3750000   0.2500000   0.1250000), wk =   0.0078125
        k(  181) = (   0.3750000   0.2500000   0.2500000), wk =   0.0078125
        k(  182) = (   0.3750000   0.2500000   0.3750000), wk =   0.0078125
        k(  183) = (   0.3750000   0.2500000  -0.5000000), wk =   0.0078125
        k(  184) = (   0.3750000   0.2500000  -0.3750000), wk =   0.0078125
        k(  185) = (   0.3750000   0.2500000  -0.2500000), wk =   0.0078125
        k(  186) = (   0.3750000   0.2500000  -0.1250000), wk =   0.0078125
        k(  187) = (   0.3750000   0.3750000   0.0000000), wk =   0.0078125
        k(  188) = (   0.3750000   0.3750000   0.1250000), wk =   0.0078125
        k(  189) = (   0.3750000   0.3750000   0.2500000), wk =   0.0078125
        k(  190) = (   0.3750000   0.3750000   0.3750000), wk =   0.0078125
        k(  191) = (   0.3750000   0.3750000  -0.5000000), wk =   0.0078125
        k(  192) = (   0.3750000   0.3750000  -0.3750000), wk =   0.0078125
        k(  193) = (   0.3750000   0.3750000  -0.2500000), wk =   0.0078125
        k(  194) = (   0.3750000   0.3750000  -0.1250000), wk =   0.0078125
        k(  195) = (   0.3750000  -0.5000000   0.0000000), wk =   0.0078125
        k(  196) = (   0.3750000  -0.5000000   0.1250000), wk =   0.0078125
        k(  197) = (   0.3750000  -0.5000000   0.2500000), wk =   0.0078125
        k(  198) = (   0.3750000  -0.5000000   0.3750000), wk =   0.0078125
        k(  199) = (   0.3750000  -0.5000000  -0.5000000), wk =   0.0078125
        k(  200) = (   0.3750000  -0.5000000  -0.3750000), wk =   0.0078125
        k(  201) = (   0.3750000  -0.5000000  -0.2500000), wk =   0.0078125
        k(  202) = (   0.3750000  -0.5000000  -0.1250000), wk =   0.0078125
        k(  203) = (   0.3750000  -0.3750000   0.0000000), wk =   0.0078125
        k(  204) = (   0.3750000  -0.3750000   0.1250000), wk =   0.0078125
        k(  205) = (   0.3750000  -0.3750000   0.2500000), wk =   0.0078125
        k(  206) = (   0.3750000  -0.3750000   0.3750000), wk =   0.0078125
        k(  207) = (   0.3750000  -0.3750000  -0.5000000), wk =   0.0078125
        k(  208) = (   0.3750000  -0.3750000  -0.3750000), wk =   0.0078125
        k(  209) = (   0.3750000  -0.3750000  -0.2500000), wk =   0.0078125
        k(  210) = (   0.3750000  -0.3750000  -0.1250000), wk =   0.0078125
        k(  211) = (   0.3750000  -0.2500000   0.0000000), wk =   0.0078125
        k(  212) = (   0.3750000  -0.2500000   0.1250000), wk =   0.0078125
        k(  213) = (   0.3750000  -0.2500000   0.2500000), wk =   0.0078125
        k(  214) = (   0.3750000  -0.2500000   0.3750000), wk =   0.0078125
        k(  215) = (   0.3750000  -0.2500000  -0.5000000), wk =   0.0078125
        k(  216) = (   0.3750000  -0.2500000  -0.3750000), wk =   0.0078125
        k(  217) = (   0.3750000  -0.2500000  -0.2500000), wk =   0.0078125
        k(  218) = (   0.3750000  -0.2500000  -0.1250000), wk =   0.0078125
        k(  219) = (   0.3750000  -0.1250000   0.0000000), wk =   0.0078125
        k(  220) = (   0.3750000  -0.1250000   0.1250000), wk =   0.0078125
        k(  221) = (   0.3750000  -0.1250000   0.2500000), wk =   0.0078125
        k(  222) = (   0.3750000  -0.1250000   0.3750000), wk =   0.0078125
        k(  223) = (   0.3750000  -0.1250000  -0.5000000), wk =   0.0078125
        k(  224) = (   0.3750000  -0.1250000  -0.3750000), wk =   0.0078125
        k(  225) = (   0.3750000  -0.1250000  -0.2500000), wk =   0.0078125
        k(  226) = (   0.3750000  -0.1250000  -0.1250000), wk =   0.0078125
        k(  227) = (  -0.5000000   0.0000000   0.0000000), wk =   0.0039062
        k(  228) = (  -0.5000000   0.0000000   0.1250000), wk =   0.0078125
        k(  229) = (  -0.5000000   0.0000000   0.2500000), wk =   0.0078125
        k(  230) = (  -0.5000000   0.0000000   0.3750000), wk =   0.0078125
        k(  231) = (  -0.5000000   0.0000000  -0.5000000), wk =   0.0039062
        k(  232) = (  -0.5000000   0.1250000   0.0000000), wk =   0.0078125
        k(  233) = (  -0.5000000   0.1250000   0.1250000), wk =   0.0078125
        k(  234) = (  -0.5000000   0.1250000   0.2500000), wk =   0.0078125
        k(  235) = (  -0.5000000   0.1250000   0.3750000), wk =   0.0078125
        k(  236) = (  -0.5000000   0.1250000  -0.5000000), wk =   0.0078125
        k(  237) = (  -0.5000000   0.1250000  -0.3750000), wk =   0.0078125
        k(  238) = (  -0.5000000   0.1250000  -0.2500000), wk =   0.0078125
        k(  239) = (  -0.5000000   0.1250000  -0.1250000), wk =   0.0078125
        k(  240) = (  -0.5000000   0.2500000   0.0000000), wk =   0.0078125
        k(  241) = (  -0.5000000   0.2500000   0.1250000), wk =   0.0078125
        k(  242) = (  -0.5000000   0.2500000   0.2500000), wk =   0.0078125
        k(  243) = (  -0.5000000   0.2500000   0.3750000), wk =   0.0078125
        k(  244) = (  -0.5000000   0.2500000  -0.5000000), wk =   0.0078125
        k(  245) = (  -0.5000000   0.2500000  -0.3750000), wk =   0.0078125
        k(  246) = (  -0.5000000   0.2500000  -0.2500000), wk =   0.0078125
        k(  247) = (  -0.5000000   0.2500000  -0.1250000), wk =   0.0078125
        k(  248) = (  -0.5000000   0.3750000   0.0000000), wk =   0.0078125
        k(  249) = (  -0.5000000   0.3750000   0.1250000), wk =   0.0078125
        k(  250) = (  -0.5000000   0.3750000   0.2500000), wk =   0.0078125
        k(  251) = (  -0.5000000   0.3750000   0.3750000), wk =   0.0078125
        k(  252) = (  -0.5000000   0.3750000  -0.5000000), wk =   0.0078125
        k(  253) = (  -0.5000000   0.3750000  -0.3750000), wk =   0.0078125
        k(  254) = (  -0.5000000   0.3750000  -0.2500000), wk =   0.0078125
        k(  255) = (  -0.5000000   0.3750000  -0.1250000), wk =   0.0078125
        k(  256) = (  -0.5000000  -0.5000000   0.0000000), wk =   0.0039062
        k(  257) = (  -0.5000000  -0.5000000   0.1250000), wk =   0.0078125
        k(  258) = (  -0.5000000  -0.5000000   0.2500000), wk =   0.0078125
        k(  259) = (  -0.5000000  -0.5000000   0.3750000), wk =   0.0078125
        k(  260) = (  -0.5000000  -0.5000000  -0.5000000), wk =   0.0039062

                       cryst. coord.
        k(    1) = (   0.0000000   0.0000000   0.0000000), wk =   0.0039062
        k(    2) = (   0.0000000   0.0000000   0.1250000), wk =   0.0078125
        k(    3) = (   0.0000000   0.0000000   0.2500000), wk =   0.0078125
        k(    4) = (   0.0000000   0.0000000   0.3750000), wk =   0.0078125
        k(    5) = (   0.0000000   0.0000000  -0.5000000), wk =   0.0039062
        k(    6) = (   0.0000000   0.1250000   0.0000000), wk =   0.0078125
        k(    7) = (   0.0000000   0.1250000   0.1250000), wk =   0.0078125
        k(    8) = (   0.0000000   0.1250000   0.2500000), wk =   0.0078125
        k(    9) = (   0.0000000   0.1250000   0.3750000), wk =   0.0078125
        k(   10) = (   0.0000000   0.1250000  -0.5000000), wk =   0.0078125
        k(   11) = (   0.0000000   0.1250000  -0.3750000), wk =   0.0078125
        k(   12) = (   0.0000000   0.1250000  -0.2500000), wk =   0.0078125
        k(   13) = (   0.0000000   0.1250000  -0.1250000), wk =   0.0078125
        k(   14) = (   0.0000000   0.2500000   0.0000000), wk =   0.0078125
        k(   15) = (   0.0000000   0.2500000   0.1250000), wk =   0.0078125
        k(   16) = (   0.0000000   0.2500000   0.2500000), wk =   0.0078125
        k(   17) = (   0.0000000   0.2500000   0.3750000), wk =   0.0078125
        k(   18) = (   0.0000000   0.2500000  -0.5000000), wk =   0.0078125
        k(   19) = (   0.0000000   0.2500000  -0.3750000), wk =   0.0078125
        k(   20) = (   0.0000000   0.2500000  -0.2500000), wk =   0.0078125
        k(   21) = (   0.0000000   0.2500000  -0.1250000), wk =   0.0078125
        k(   22) = (   0.0000000   0.3750000   0.0000000), wk =   0.0078125
        k(   23) = (   0.0000000   0.3750000   0.1250000), wk =   0.0078125
        k(   24) = (   0.0000000   0.3750000   0.2500000), wk =   0.0078125
        k(   25) = (   0.0000000   0.3750000   0.3750000), wk =   0.0078125
        k(   26) = (   0.0000000   0.3750000  -0.5000000), wk =   0.0078125
        k(   27) = (   0.0000000   0.3750000  -0.3750000), wk =   0.0078125
        k(   28) = (   0.0000000   0.3750000  -0.2500000), wk =   0.0078125
        k(   29) = (   0.0000000   0.3750000  -0.1250000), wk =   0.0078125
        k(   30) = (   0.0000000  -0.5000000   0.0000000), wk =   0.0039062
        k(   31) = (   0.0000000  -0.5000000   0.1250000), wk =   0.0078125
        k(   32) = (   0.0000000  -0.5000000   0.2500000), wk =   0.0078125
        k(   33) = (   0.0000000  -0.5000000   0.3750000), wk =   0.0078125
        k(   34) = (   0.0000000  -0.5000000  -0.5000000), wk =   0.0039062
        k(   35) = (   0.1250000   0.0000000   0.0000000), wk =   0.0078125
        k(   36) = (   0.1250000   0.0000000   0.1250000), wk =   0.0078125
        k(   37) = (   0.1250000   0.0000000   0.2500000), wk =   0.0078125
        k(   38) = (   0.1250000   0.0000000   0.3750000), wk =   0.0078125
        k(   39) = (   0.1250000   0.0000000  -0.5000000), wk =   0.0078125
        k(   40) = (   0.1250000   0.0000000  -0.3750000), wk =   0.0078125
        k(   41) = (   0.1250000   0.0000000  -0.2500000), wk =   0.0078125
        k(   42) = (   0.1250000   0.0000000  -0.1250000), wk =   0.0078125
        k(   43) = (   0.1250000   0.1250000   0.0000000), wk =   0.0078125
        k(   44) = (   0.1250000   0.1250000   0.1250000), wk =   0.0078125
        k(   45) = (   0.1250000   0.1250000   0.2500000), wk =   0.0078125
        k(   46) = (   0.1250000   0.1250000   0.3750000), wk =   0.0078125
        k(   47) = (   0.1250000   0.1250000  -0.5000000), wk =   0.0078125
        k(   48) = (   0.1250000   0.1250000  -0.3750000), wk =   0.0078125
        k(   49) = (   0.1250000   0.1250000  -0.2500000), wk =   0.0078125
        k(   50) = (   0.1250000   0.1250000  -0.1250000), wk =   0.0078125
        k(   51) = (   0.1250000   0.2500000   0.0000000), wk =   0.0078125
        k(   52) = (   0.1250000   0.2500000   0.1250000), wk =   0.0078125
        k(   53) = (   0.1250000   0.2500000   0.2500000), wk =   0.0078125
        k(   54) = (   0.1250000   0.2500000   0.3750000), wk =   0.0078125
        k(   55) = (   0.1250000   0.2500000  -0.5000000), wk =   0.0078125
        k(   56) = (   0.1250000   0.2500000  -0.3750000), wk =   0.0078125
        k(   57) = (   0.1250000   0.2500000  -0.2500000), wk =   0.0078125
        k(   58) = (   0.1250000   0.2500000  -0.1250000), wk =   0.0078125
        k(   59) = (   0.1250000   0.3750000   0.0000000), wk =   0.0078125
        k(   60) = (   0.1250000   0.3750000   0.1250000), wk =   0.0078125
        k(   61) = (   0.1250000   0.3750000   0.2500000), wk =   0.0078125
        k(   62) = (   0.1250000   0.3750000   0.3750000), wk =   0.0078125
        k(   63) = (   0.1250000   0.3750000  -0.5000000), wk =   0.0078125
        k(   64) = (   0.1250000   0.3750000  -0.3750000), wk =   0.0078125
        k(   65) = (   0.1250000   0.3750000  -0.2500000), wk =   0.0078125
        k(   66) = (   0.1250000   0.3750000  -0.1250000), wk =   0.0078125
        k(   67) = (   0.1250000  -0.5000000   0.0000000), wk =   0.0078125
        k(   68) = (   0.1250000  -0.5000000   0.1250000), wk =   0.0078125
        k(   69) = (   0.1250000  -0.5000000   0.2500000), wk =   0.0078125
        k(   70) = (   0.1250000  -0.5000000   0.3750000), wk =   0.0078125
        k(   71) = (   0.1250000  -0.5000000  -0.5000000), wk =   0.0078125
        k(   72) = (   0.1250000  -0.5000000  -0.3750000), wk =   0.0078125
        k(   73) = (   0.1250000  -0.5000000  -0.2500000), wk =   0.0078125
        k(   74) = (   0.1250000  -0.5000000  -0.1250000), wk =   0.0078125
        k(   75) = (   0.1250000  -0.3750000   0.0000000), wk =   0.0078125
        k(   76) = (   0.1250000  -0.3750000   0.1250000), wk =   0.0078125
        k(   77) = (   0.1250000  -0.3750000   0.2500000), wk =   0.0078125
        k(   78) = (   0.1250000  -0.3750000   0.3750000), wk =   0.0078125
        k(   79) = (   0.1250000  -0.3750000  -0.5000000), wk =   0.0078125
        k(   80) = (   0.1250000  -0.3750000  -0.3750000), wk =   0.0078125
        k(   81) = (   0.1250000  -0.3750000  -0.2500000), wk =   0.0078125
        k(   82) = (   0.1250000  -0.3750000  -0.1250000), wk =   0.0078125
        k(   83) = (   0.1250000  -0.2500000   0.0000000), wk =   0.0078125
        k(   84) = (   0.1250000  -0.2500000   0.1250000), wk =   0.0078125
        k(   85) = (   0.1250000  -0.2500000   0.2500000), wk =   0.0078125
        k(   86) = (   0.1250000  -0.2500000   0.3750000), wk =   0.0078125
        k(   87) = (   0.1250000  -0.2500000  -0.5000000), wk =   0.0078125
        k(   88) = (   0.1250000  -0.2500000  -0.3750000), wk =   0.0078125
        k(   89) = (   0.1250000  -0.2500000  -0.2500000), wk =   0.0078125
        k(   90) = (   0.1250000  -0.2500000  -0.1250000), wk =   0.0078125
        k(   91) = (   0.1250000  -0.1250000   0.0000000), wk =   0.0078125
        k(   92) = (   0.1250000  -0.1250000   0.1250000), wk =   0.0078125
        k(   93) = (   0.1250000  -0.1250000   0.2500000), wk =   0.0078125
        k(   94) = (   0.1250000  -0.1250000   0.3750000), wk =   0.0078125
        k(   95) = (   0.1250000  -0.1250000  -0.5000000), wk =   0.0078125
        k(   96) = (   0.1250000  -0.1250000  -0.3750000), wk =   0.0078125
        k(   97) = (   0.1250000  -0.1250000  -0.2500000), wk =   0.0078125
        k(   98) = (   0.1250000  -0.1250000  -0.1250000), wk =   0.0078125
        k(   99) = (   0.2500000   0.0000000   0.0000000), wk =   0.0078125
        k(  100) = (   0.2500000   0.0000000   0.1250000), wk =   0.0078125
        k(  101) = (   0.2500000   0.0000000   0.2500000), wk =   0.0078125
        k(  102) = (   0.2500000   0.0000000   0.3750000), wk =   0.0078125
        k(  103) = (   0.2500000   0.0000000  -0.5000000), wk =   0.0078125
        k(  104) = (   0.2500000   0.0000000  -0.3750000), wk =   0.0078125
        k(  105) = (   0.2500000   0.0000000  -0.2500000), wk =   0.0078125
        k(  106) = (   0.2500000   0.0000000  -0.1250000), wk =   0.0078125
        k(  107) = (   0.2500000   0.1250000   0.0000000), wk =   0.0078125
        k(  108) = (   0.2500000   0.1250000   0.1250000), wk =   0.0078125
        k(  109) = (   0.2500000   0.1250000   0.2500000), wk =   0.0078125
        k(  110) = (   0.2500000   0.1250000   0.3750000), wk =   0.0078125
        k(  111) = (   0.2500000   0.1250000  -0.5000000), wk =   0.0078125
        k(  112) = (   0.2500000   0.1250000  -0.3750000), wk =   0.0078125
        k(  113) = (   0.2500000   0.1250000  -0.2500000), wk =   0.0078125
        k(  114) = (   0.2500000   0.1250000  -0.1250000), wk =   0.0078125
        k(  115) = (   0.2500000   0.2500000   0.0000000), wk =   0.0078125
        k(  116) = (   0.2500000   0.2500000   0.1250000), wk =   0.0078125
        k(  117) = (   0.2500000   0.2500000   0.2500000), wk =   0.0078125
        k(  118) = (   0.2500000   0.2500000   0.3750000), wk =   0.0078125
        k(  119) = (   0.2500000   0.2500000  -0.5000000), wk =   0.0078125
        k(  120) = (   0.2500000   0.2500000  -0.3750000), wk =   0.0078125
        k(  121) = (   0.2500000   0.2500000  -0.2500000), wk =   0.0078125
        k(  122) = (   0.2500000   0.2500000  -0.1250000), wk =   0.0078125
        k(  123) = (   0.2500000   0.3750000   0.0000000), wk =   0.0078125
        k(  124) = (   0.2500000   0.3750000   0.1250000), wk =   0.0078125
        k(  125) = (   0.2500000   0.3750000   0.2500000), wk =   0.0078125
        k(  126) = (   0.2500000   0.3750000   0.3750000), wk =   0.0078125
        k(  127) = (   0.2500000   0.3750000  -0.5000000), wk =   0.0078125
        k(  128) = (   0.2500000   0.3750000  -0.3750000), wk =   0.0078125
        k(  129) = (   0.2500000   0.3750000  -0.2500000), wk =   0.0078125
        k(  130) = (   0.2500000   0.3750000  -0.1250000), wk =   0.0078125
        k(  131) = (   0.2500000  -0.5000000   0.0000000), wk =   0.0078125
        k(  132) = (   0.2500000  -0.5000000   0.1250000), wk =   0.0078125
        k(  133) = (   0.2500000  -0.5000000   0.2500000), wk =   0.0078125
        k(  134) = (   0.2500000  -0.5000000   0.3750000), wk =   0.0078125
        k(  135) = (   0.2500000  -0.5000000  -0.5000000), wk =   0.0078125
        k(  136) = (   0.2500000  -0.5000000  -0.3750000), wk =   0.0078125
        k(  137) = (   0.2500000  -0.5000000  -0.2500000), wk =   0.0078125
        k(  138) = (   0.2500000  -0.5000000  -0.1250000), wk =   0.0078125
        k(  139) = (   0.2500000  -0.3750000   0.0000000), wk =   0.0078125
        k(  140) = (   0.2500000  -0.3750000   0.1250000), wk =   0.0078125
        k(  141) = (   0.2500000  -0.3750000   0.2500000), wk =   0.0078125
        k(  142) = (   0.2500000  -0.3750000   0.3750000), wk =   0.0078125
        k(  143) = (   0.2500000  -0.3750000  -0.5000000), wk =   0.0078125
        k(  144) = (   0.2500000  -0.3750000  -0.3750000), wk =   0.0078125
        k(  145) = (   0.2500000  -0.3750000  -0.2500000), wk =   0.0078125
        k(  146) = (   0.2500000  -0.3750000  -0.1250000), wk =   0.0078125
        k(  147) = (   0.2500000  -0.2500000   0.0000000), wk =   0.0078125
        k(  148) = (   0.2500000  -0.2500000   0.1250000), wk =   0.0078125
        k(  149) = (   0.2500000  -0.2500000   0.2500000), wk =   0.0078125
        k(  150) = (   0.2500000  -0.2500000   0.3750000), wk =   0.0078125
        k(  151) = (   0.2500000  -0.2500000  -0.5000000), wk =   0.0078125
        k(  152) = (   0.2500000  -0.2500000  -0.3750000), wk =   0.0078125
        k(  153) = (   0.2500000  -0.2500000  -0.2500000), wk =   0.0078125
        k(  154) = (   0.2500000  -0.2500000  -0.1250000), wk =   0.0078125
        k(  155) = (   0.2500000  -0.1250000   0.0000000), wk =   0.0078125
        k(  156) = (   0.2500000  -0.1250000   0.1250000), wk =   0.0078125
        k(  157) = (   0.2500000  -0.1250000   0.2500000), wk =   0.0078125
        k(  158) = (   0.2500000  -0.1250000   0.3750000), wk =   0.0078125
        k(  159) = (   0.2500000  -0.1250000  -0.5000000), wk =   0.0078125
        k(  160) = (   0.2500000  -0.1250000  -0.3750000), wk =   0.0078125
        k(  161) = (   0.2500000  -0.1250000  -0.2500000), wk =   0.0078125
        k(  162) = (   0.2500000  -0.1250000  -0.1250000), wk =   0.0078125
        k(  163) = (   0.3750000   0.0000000   0.0000000), wk =   0.0078125
        k(  164) = (   0.3750000   0.0000000   0.1250000), wk =   0.0078125
        k(  165) = (   0.3750000   0.0000000   0.2500000), wk =   0.0078125
        k(  166) = (   0.3750000   0.0000000   0.3750000), wk =   0.0078125
        k(  167) = (   0.3750000   0.0000000  -0.5000000), wk =   0.0078125
        k(  168) = (   0.3750000   0.0000000  -0.3750000), wk =   0.0078125
        k(  169) = (   0.3750000   0.0000000  -0.2500000), wk =   0.0078125
        k(  170) = (   0.3750000   0.0000000  -0.1250000), wk =   0.0078125
        k(  171) = (   0.3750000   0.1250000   0.0000000), wk =   0.0078125
        k(  172) = (   0.3750000   0.1250000   0.1250000), wk =   0.0078125
        k(  173) = (   0.3750000   0.1250000   0.2500000), wk =   0.0078125
        k(  174) = (   0.3750000   0.1250000   0.3750000), wk =   0.0078125
        k(  175) = (   0.3750000   0.1250000  -0.5000000), wk =   0.0078125
        k(  176) = (   0.3750000   0.1250000  -0.3750000), wk =   0.0078125
        k(  177) = (   0.3750000   0.1250000  -0.2500000), wk =   0.0078125
        k(  178) = (   0.3750000   0.1250000  -0.1250000), wk =   0.0078125
        k(  179) = (   0.3750000   0.2500000   0.0000000), wk =   0.0078125
        k(  180) = (   0.3750000   0.2500000   0.1250000), wk =   0.0078125
        k(  181) = (   0.3750000   0.2500000   0.2500000), wk =   0.0078125
        k(  182) = (   0.3750000   0.2500000   0.3750000), wk =   0.0078125
        k(  183) = (   0.3750000   0.2500000  -0.5000000), wk =   0.0078125
        k(  184) = (   0.3750000   0.2500000  -0.3750000), wk =   0.0078125
        k(  185) = (   0.3750000   0.2500000  -0.2500000), wk =   0.0078125
        k(  186) = (   0.3750000   0.2500000  -0.1250000), wk =   0.0078125
        k(  187) = (   0.3750000   0.3750000   0.0000000), wk =   0.0078125
        k(  188) = (   0.3750000   0.3750000   0.1250000), wk =   0.0078125
        k(  189) = (   0.3750000   0.3750000   0.2500000), wk =   0.0078125
        k(  190) = (   0.3750000   0.3750000   0.3750000), wk =   0.0078125
        k(  191) = (   0.3750000   0.3750000  -0.5000000), wk =   0.0078125
        k(  192) = (   0.3750000   0.3750000  -0.3750000), wk =   0.0078125
        k(  193) = (   0.3750000   0.3750000  -0.2500000), wk =   0.0078125
        k(  194) = (   0.3750000   0.3750000  -0.1250000), wk =   0.0078125
        k(  195) = (   0.3750000  -0.5000000   0.0000000), wk =   0.0078125
        k(  196) = (   0.3750000  -0.5000000   0.1250000), wk =   0.0078125
        k(  197) = (   0.3750000  -0.5000000   0.2500000), wk =   0.0078125
        k(  198) = (   0.3750000  -0.5000000   0.3750000), wk =   0.0078125
        k(  199) = (   0.3750000  -0.5000000  -0.5000000), wk =   0.0078125
        k(  200) = (   0.3750000  -0.5000000  -0.3750000), wk =   0.0078125
        k(  201) = (   0.3750000  -0.5000000  -0.2500000), wk =   0.0078125
        k(  202) = (   0.3750000  -0.5000000  -0.1250000), wk =   0.0078125
        k(  203) = (   0.3750000  -0.3750000   0.0000000), wk =   0.0078125
        k(  204) = (   0.3750000  -0.3750000   0.1250000), wk =   0.0078125
        k(  205) = (   0.3750000  -0.3750000   0.2500000), wk =   0.0078125
        k(  206) = (   0.3750000  -0.3750000   0.3750000), wk =   0.0078125
        k(  207) = (   0.3750000  -0.3750000  -0.5000000), wk =   0.0078125
        k(  208) = (   0.3750000  -0.3750000  -0.3750000), wk =   0.0078125
        k(  209) = (   0.3750000  -0.3750000  -0.2500000), wk =   0.0078125
        k(  210) = (   0.3750000  -0.3750000  -0.1250000), wk =   0.0078125
        k(  211) = (   0.3750000  -0.2500000   0.0000000), wk =   0.0078125
        k(  212) = (   0.3750000  -0.2500000   0.1250000), wk =   0.0078125
        k(  213) = (   0.3750000  -0.2500000   0.2500000), wk =   0.0078125
        k(  214) = (   0.3750000  -0.2500000   0.3750000), wk =   0.0078125
        k(  215) = (   0.3750000  -0.2500000  -0.5000000), wk =   0.0078125
        k(  216) = (   0.3750000  -0.2500000  -0.3750000), wk =   0.0078125
        k(  217) = (   0.3750000  -0.2500000  -0.2500000), wk =   0.0078125
        k(  218) = (   0.3750000  -0.2500000  -0.1250000), wk =   0.0078125
        k(  219) = (   0.3750000  -0.1250000   0.0000000), wk =   0.0078125
        k(  220) = (   0.3750000  -0.1250000   0.1250000), wk =   0.0078125
        k(  221) = (   0.3750000  -0.1250000   0.2500000), wk =   0.0078125
        k(  222) = (   0.3750000  -0.1250000   0.3750000), wk =   0.0078125
        k(  223) = (   0.3750000  -0.1250000  -0.5000000), wk =   0.0078125
        k(  224) = (   0.3750000  -0.1250000  -0.3750000), wk =   0.0078125
        k(  225) = (   0.3750000  -0.1250000  -0.2500000), wk =   0.0078125
        k(  226) = (   0.3750000  -0.1250000  -0.1250000), wk =   0.0078125
        k(  227) = (  -0.5000000   0.0000000   0.0000000), wk =   0.0039062
        k(  228) = (  -0.5000000   0.0000000   0.1250000), wk =   0.0078125
        k(  229) = (  -0.5000000   0.0000000   0.2500000), wk =   0.0078125
        k(  230) = (  -0.5000000   0.0000000   0.3750000), wk =   0.0078125
        k(  231) = (  -0.5000000   0.0000000  -0.5000000), wk =   0.0039062
        k(  232) = (  -0.5000000   0.1250000   0.0000000), wk =   0.0078125
        k(  233) = (  -0.5000000   0.1250000   0.1250000), wk =   0.0078125
        k(  234) = (  -0.5000000   0.1250000   0.2500000), wk =   0.0078125
        k(  235) = (  -0.5000000   0.1250000   0.3750000), wk =   0.0078125
        k(  236) = (  -0.5000000   0.1250000  -0.5000000), wk =   0.0078125
        k(  237) = (  -0.5000000   0.1250000  -0.3750000), wk =   0.0078125
        k(  238) = (  -0.5000000   0.1250000  -0.2500000), wk =   0.0078125
        k(  239) = (  -0.5000000   0.1250000  -0.1250000), wk =   0.0078125
        k(  240) = (  -0.5000000   0.2500000   0.0000000), wk =   0.0078125
        k(  241) = (  -0.5000000   0.2500000   0.1250000), wk =   0.0078125
        k(  242) = (  -0.5000000   0.2500000   0.2500000), wk =   0.0078125
        k(  243) = (  -0.5000000   0.2500000   0.3750000), wk =   0.0078125
        k(  244) = (  -0.5000000   0.2500000  -0.5000000), wk =   0.0078125
        k(  245) = (  -0.5000000   0.2500000  -0.3750000), wk =   0.0078125
        k(  246) = (  -0.5000000   0.2500000  -0.2500000), wk =   0.0078125
        k(  247) = (  -0.5000000   0.2500000  -0.1250000), wk =   0.0078125
        k(  248) = (  -0.5000000   0.3750000   0.0000000), wk =   0.0078125
        k(  249) = (  -0.5000000   0.3750000   0.1250000), wk =   0.0078125
        k(  250) = (  -0.5000000   0.3750000   0.2500000), wk =   0.0078125
        k(  251) = (  -0.5000000   0.3750000   0.3750000), wk =   0.0078125
        k(  252) = (  -0.5000000   0.3750000  -0.5000000), wk =   0.0078125
        k(  253) = (  -0.5000000   0.3750000  -0.3750000), wk =   0.0078125
        k(  254) = (  -0.5000000   0.3750000  -0.2500000), wk =   0.0078125
        k(  255) = (  -0.5000000   0.3750000  -0.1250000), wk =   0.0078125
        k(  256) = (  -0.5000000  -0.5000000   0.0000000), wk =   0.0039062
        k(  257) = (  -0.5000000  -0.5000000   0.1250000), wk =   0.0078125
        k(  258) = (  -0.5000000  -0.5000000   0.2500000), wk =   0.0078125
        k(  259) = (  -0.5000000  -0.5000000   0.3750000), wk =   0.0078125
        k(  260) = (  -0.5000000  -0.5000000  -0.5000000), wk =   0.0039062

     Dense  grid:    10443 G-vectors     FFT dimensions: (  27,  27,  27)

     Dynamical RAM for                 wfc:       0.12 MB

     Dynamical RAM for     wfc (w. buffer):       0.12 MB

     Dynamical RAM for           str. fact:       0.02 MB

     Dynamical RAM for           local pot:       0.00 MB

     Dynamical RAM for          nlocal pot:       0.16 MB

     Dynamical RAM for                qrad:       0.29 MB

     Dynamical RAM for          rho,v,vnew:       0.13 MB

     Dynamical RAM for           G-vectors:       0.08 MB

     Dynamical RAM for          h,s,v(r/c):       0.11 MB

     Dynamical RAM for          <psi|beta>:       0.05 MB

     Dynamical RAM for      wfcinit/wfcrot:       0.29 MB

     Dynamical RAM for           addusdens:       0.27 MB

     Estimated static dynamical RAM per process >       0.95 MB

     Estimated max dynamical RAM per process >       1.25 MB

     Estimated total dynamical RAM >      39.87 MB

     Check: negative core charge=   -0.000059

     The potential is recalculated from file :
     ./C.save/charge-density

     Starting wfcs are   32 randomized atomic wfcs +   16 random wfcs

     Band Structure Calculation
     CG style diagonalization

     Computing kpt #:     1  of    65 on this pool
     total cpu time spent up to now is        0.6 secs

     Computing kpt #:     2  of    65 on this pool
     total cpu time spent up to now is        0.8 secs

     Computing kpt #:     3  of    65 on this pool
     total cpu time spent up to now is        1.1 secs

     Computing kpt #:     4  of    65 on this pool
     total cpu time spent up to now is        1.3 secs

     Computing kpt #:     5  of    65 on this pool
     total cpu time spent up to now is        1.6 secs

     Computing kpt #:     6  of    65 on this pool
     total cpu time spent up to now is        1.8 secs

     Computing kpt #:     7  of    65 on this pool
     total cpu time spent up to now is        2.1 secs

     Computing kpt #:     8  of    65 on this pool
     total cpu time spent up to now is        2.4 secs

     Computing kpt #:     9  of    65 on this pool
     total cpu time spent up to now is        2.6 secs

     Computing kpt #:    10  of    65 on this pool
     total cpu time spent up to now is        2.9 secs

     Computing kpt #:    11  of    65 on this pool
     total cpu time spent up to now is        3.2 secs

     Computing kpt #:    12  of    65 on this pool
     total cpu time spent up to now is        3.4 secs

     Computing kpt #:    13  of    65 on this pool
     total cpu time spent up to now is        3.7 secs

     Computing kpt #:    14  of    65 on this pool
     total cpu time spent up to now is        3.9 secs

     Computing kpt #:    15  of    65 on this pool
     total cpu time spent up to now is        4.2 secs

     Computing kpt #:    16  of    65 on this pool
     total cpu time spent up to now is        4.5 secs

     Computing kpt #:    17  of    65 on this pool
     total cpu time spent up to now is        4.7 secs

     Computing kpt #:    18  of    65 on this pool
     total cpu time spent up to now is        5.0 secs

     Computing kpt #:    19  of    65 on this pool
     total cpu time spent up to now is        5.2 secs

     Computing kpt #:    20  of    65 on this pool
     total cpu time spent up to now is        5.5 secs

     Computing kpt #:    21  of    65 on this pool
     total cpu time spent up to now is        5.7 secs

     Computing kpt #:    22  of    65 on this pool
     total cpu time spent up to now is        6.0 secs

     Computing kpt #:    23  of    65 on this pool
     total cpu time spent up to now is        6.2 secs

     Computing kpt #:    24  of    65 on this pool
     total cpu time spent up to now is        6.5 secs

     Computing kpt #:    25  of    65 on this pool
     total cpu time spent up to now is        6.8 secs

     Computing kpt #:    26  of    65 on this pool
     total cpu time spent up to now is        7.0 secs

     Computing kpt #:    27  of    65 on this pool
     total cpu time spent up to now is        7.3 secs

     Computing kpt #:    28  of    65 on this pool
     total cpu time spent up to now is        7.6 secs

     Computing kpt #:    29  of    65 on this pool
     total cpu time spent up to now is        7.9 secs

     Computing kpt #:    30  of    65 on this pool
     total cpu time spent up to now is        8.2 secs

     Computing kpt #:    31  of    65 on this pool
     total cpu time spent up to now is        8.4 secs

     Computing kpt #:    32  of    65 on this pool
     total cpu time spent up to now is        8.7 secs

     Computing kpt #:    33  of    65 on this pool
     total cpu time spent up to now is        9.0 secs

     Computing kpt #:    34  of    65 on this pool
     total cpu time spent up to now is        9.2 secs

     Computing kpt #:    35  of    65 on this pool
     total cpu time spent up to now is        9.5 secs

     Computing kpt #:    36  of    65 on this pool
     total cpu time spent up to now is        9.8 secs

     Computing kpt #:    37  of    65 on this pool
     total cpu time spent up to now is       10.0 secs

     Computing kpt #:    38  of    65 on this pool
     total cpu time spent up to now is       10.3 secs

     Computing kpt #:    39  of    65 on this pool
     total cpu time spent up to now is       10.6 secs

     Computing kpt #:    40  of    65 on this pool
     total cpu time spent up to now is       10.8 secs

     Computing kpt #:    41  of    65 on this pool
     total cpu time spent up to now is       11.1 secs

     Computing kpt #:    42  of    65 on this pool
     total cpu time spent up to now is       11.3 secs

     Computing kpt #:    43  of    65 on this pool
     total cpu time spent up to now is       11.6 secs

     Computing kpt #:    44  of    65 on this pool
     total cpu time spent up to now is       11.8 secs

     Computing kpt #:    45  of    65 on this pool
     total cpu time spent up to now is       12.2 secs

     Computing kpt #:    46  of    65 on this pool
     total cpu time spent up to now is       12.4 secs

     Computing kpt #:    47  of    65 on this pool
     total cpu time spent up to now is       12.7 secs

     Computing kpt #:    48  of    65 on this pool
     total cpu time spent up to now is       12.9 secs

     Computing kpt #:    49  of    65 on this pool
     total cpu time spent up to now is       13.2 secs

     Computing kpt #:    50  of    65 on this pool
     total cpu time spent up to now is       13.4 secs

     Computing kpt #:    51  of    65 on this pool
     total cpu time spent up to now is       13.7 secs

     Computing kpt #:    52  of    65 on this pool
     total cpu time spent up to now is       13.9 secs

     Computing kpt #:    53  of    65 on this pool
     total cpu time spent up to now is       14.2 secs

     Computing kpt #:    54  of    65 on this pool
     total cpu time spent up to now is       14.4 secs

     Computing kpt #:    55  of    65 on this pool
     total cpu time spent up to now is       14.7 secs

     Computing kpt #:    56  of    65 on this pool
     total cpu time spent up to now is       14.9 secs

     Computing kpt #:    57  of    65 on this pool
     total cpu time spent up to now is       15.2 secs

     Computing kpt #:    58  of    65 on this pool
     total cpu time spent up to now is       15.5 secs

     Computing kpt #:    59  of    65 on this pool
     total cpu time spent up to now is       15.7 secs

     Computing kpt #:    60  of    65 on this pool
     total cpu time spent up to now is       16.0 secs

     Computing kpt #:    61  of    65 on this pool
     total cpu time spent up to now is       16.2 secs

     Computing kpt #:    62  of    65 on this pool
     total cpu time spent up to now is       16.5 secs

     Computing kpt #:    63  of    65 on this pool
     total cpu time spent up to now is       16.7 secs

     Computing kpt #:    64  of    65 on this pool
     total cpu time spent up to now is       17.0 secs

     Computing kpt #:    65  of    65 on this pool
     total cpu time spent up to now is       17.2 secs

     ethr =  3.13E-11,  avg # of iterations = 34.4

     total cpu time spent up to now is       17.3 secs

     End of band structure calculation

          k = 0.0000 0.0000 0.0000 (  1357 PWs)   bands (ev):

    -8.1398   0.5460   0.5464   0.5464   0.5464   0.5467   0.5467   6.9949
     6.9949   6.9949   6.9963   6.9963   6.9963  13.2801  13.2801  13.2801
    18.0711  18.0715  18.0715  18.0715  18.0717  18.0717  18.8793  18.8793
    18.8793  26.5522  30.0295  30.0295  30.0295  30.0328  30.0328  30.0328
    32.5446  36.4382  36.4389  36.4389  36.4389  36.4395  36.4395  39.9171
    39.9171  40.8284  40.8284  40.8284  45.6621  45.6621  45.6621  45.6632

     occupation numbers 
     1.0000   1.0000   1.0000   1.0000   1.0000   1.0000   1.0000   1.0000
     1.0000   1.0000   1.0000   1.0000   1.0000   1.0000   1.0000   1.0000
     0.0000   0.0000   0.0000   0.0000   0.0000   0.0000   0.0000   0.0000
     0.0000   0.0000   0.0000   0.0000   0.0000   0.0000   0.0000   0.0000
     0.0000   0.0000   0.0000   0.0000   0.0000   0.0000   0.0000   0.0000
     0.0000   0.0000   0.0000   0.0000   0.0000   0.0000   0.0000   0.0000

          k = 0.0000 0.0000 0.1250 (  1321 PWs)   bands (ev):

    -7.9960  -1.3714   0.6372   0.6373   0.6373   0.6376   2.5996   6.6910
     6.6916   6.6916   6.6922   7.1364   7.1364  12.7291  12.7291  12.9295
    17.6136  18.6492  18.6495  18.6495  18.6497  18.7671  18.8656  19.5534
    19.5534  26.6459  29.5731  29.5731  29.7463  29.7479  29.7479  29.7494
    32.7960  35.8741  36.0999  36.1002  36.1002  36.1008  36.7364  36.7865
    40.0995  41.1659  41.1659  43.5411  45.1101  45.1104  45.1104  45.1108

     occupation numbers 
     1.0000   1.0000   1.0000   1.0000   1.0000   1.0000   1.0000   1.0000
     1.0000   1.0000   1.0000   1.0000   1.0000   1.0000   1.0000   1.0000
     0.0000   0.0000   0.0000   0.0000   0.0000   0.0000   0.0000   0.0000
     0.0000   0.0000   0.0000   0.0000   0.0000   0.0000   0.0000   0.0000
     0.0000   0.0000   0.0000   0.0000   0.0000   0.0000   0.0000   0.0000
     0.0000   0.0000   0.0000   0.0000   0.0000   0.0000   0.0000   0.0000

          k = 0.0000 0.0000 0.2500 (  1318 PWs)   bands (ev):

    -7.5658  -3.1014   0.8826   0.8828   0.8828   0.8831   4.7151   5.9860
     5.9866   5.9866   5.9872   7.5545   7.5545  11.5612  11.5612  11.9586
    17.4406  18.4728  20.0420  20.1748  20.1753  20.1753  20.1757  21.0848
    21.0848  26.5531  28.3635  28.3635  28.7992  28.8006  28.8006  28.8019
    33.4831  34.0493  35.1104  35.3610  35.3613  35.3613  35.3620  36.6775
    40.6469  42.1692  42.1692  44.3094  44.3095  44.3095  44.3097  45.4161

     occupation numbers 
     1.0000   1.0000   1.0000   1.0000   1.0000   1.0000   1.0000   1.0000
     1.0000   1.0000   1.0000   1.0000   1.0000   1.0000   1.0000   1.0000
     0.0000   0.0000   0.0000   0.0000   0.0000   0.0000   0.0000   0.0000
     0.0000   0.0000   0.0000   0.0000   0.0000   0.0000   0.0000   0.0000
     0.0000   0.0000   0.0000   0.0000   0.0000   0.0000   0.0000   0.0000
     0.0000   0.0000   0.0000   0.0000   0.0000   0.0000   0.0000   0.0000

          k = 0.0000 0.0000 0.3750 (  1314 PWs)   bands (ev):

    -6.8525  -4.6067   1.1833   1.1835   1.1835   1.1837   5.2857   5.2861
     5.2861   5.2867   6.8049   8.2394   8.2394  10.3050  10.3050  10.5266
    17.5025  18.0965  21.6243  22.2366  22.2373  22.2373  22.2380  22.9296
    22.9296  25.4576  26.7123  26.7123  27.1364  27.1373  27.1373  27.1383
    33.0081  34.2254  34.4327  34.7660  34.7665  34.7665  34.7673  36.2223
    41.5590  43.7973  43.7973  43.8416  43.8416  43.8416  43.8418  44.4794

     occupation numbers 
     1.0000   1.0000   1.0000   1.0000   1.0000   1.0000   1.0000   1.0000
     1.0000   1.0000   1.0000   1.0000   1.0000   1.0000   1.0000   1.0000
     0.0000   0.0000   0.0000   0.0000   0.0000   0.0000   0.0000   0.0000
     0.0000   0.0000   0.0000   0.0000   0.0000   0.0000   0.0000   0.0000
     0.0000   0.0000   0.0000   0.0000   0.0000   0.0000   0.0000   0.0000
     0.0000   0.0000   0.0000   0.0000   0.0000   0.0000   0.0000   0.0000

          k = 0.0000 0.0000-0.5000 (  1278 PWs)   bands (ev):

    -5.8625  -5.8622   1.3332   1.3334   1.3334   1.3337   4.9837   4.9841
     4.9841   4.9846   8.7748   8.7748   9.1704   9.1704   9.1706   9.1706
    17.7446  17.7450  23.5448  23.5458  23.9151  23.9164  23.9164  23.9176
    24.8529  24.8529  24.8533  24.8533  25.5746  25.5748  25.5748  25.5752
    33.3764  33.3773  34.5626  34.5631  34.5631  34.5639  35.4205  35.4225
    42.8387  42.8387  43.6992  43.6992  43.6993  43.6994  45.8996  45.8996

     occupation numbers 
     1.0000   1.0000   1.0000   1.0000   1.0000   1.0000   1.0000   1.0000
     1.0000   1.0000   1.0000   1.0000   1.0000   1.0000   1.0000   1.0000
     0.0000   0.0000   0.0000   0.0000   0.0000   0.0000   0.0000   0.0000
     0.0000   0.0000   0.0000   0.0000   0.0000   0.0000   0.0000   0.0000
     0.0000   0.0000   0.0000   0.0000   0.0000   0.0000   0.0000   0.0000
     0.0000   0.0000   0.0000   0.0000   0.0000   0.0000   0.0000   0.0000

          k = 0.0000 0.1250 0.0000 (  1321 PWs)   bands (ev):

    -7.9960  -1.3714   0.6372   0.6373   0.6373   0.6376   2.5996   6.6910
     6.6916   6.6916   6.6922   7.1364   7.1364  12.7291  12.7291  12.9295
    17.6136  18.6492  18.6495  18.6495  18.6497  18.7671  18.8656  19.5534
    19.5534  26.6459  29.5731  29.5731  29.7463  29.7479  29.7479  29.7494
    32.7960  35.8741  36.0999  36.1002  36.1002  36.1008  36.7364  36.7865
    40.0995  41.1659  41.1659  43.5411  45.1101  45.1104  45.1104  45.1108

     occupation numbers 
     1.0000   1.0000   1.0000   1.0000   1.0000   1.0000   1.0000   1.0000
     1.0000   1.0000   1.0000   1.0000   1.0000   1.0000   1.0000   1.0000
     0.0000   0.0000   0.0000   0.0000   0.0000   0.0000   0.0000   0.0000
     0.0000   0.0000   0.0000   0.0000   0.0000   0.0000   0.0000   0.0000
     0.0000   0.0000   0.0000   0.0000   0.0000   0.0000   0.0000   0.0000
     0.0000   0.0000   0.0000   0.0000   0.0000   0.0000   0.0000   0.0000

          k = 0.0000 0.1250 0.1250 (  1317 PWs)   bands (ev):

    -7.8525  -1.2559  -1.2558   0.6287   0.8048   2.6364   2.6368   5.7368
     6.7924   6.7930   6.9002   6.9008   7.2354  11.8625  12.2129  13.1000
    18.2096  18.2099  18.3046  19.1710  19.4156  19.4157  19.6920  19.9707
    19.9837  26.7686  29.0732  29.0740  29.3480  29.4876  29.4896  29.6833
    33.0132  34.8889  35.8057  35.8067  36.2395  36.2398  36.5172  36.8017
    37.8008  41.5099  42.3223  42.9456  45.0894  45.0905  45.4419  45.7652

     occupation numbers 
     1.0000   1.0000   1.0000   1.0000   1.0000   1.0000   1.0000   1.0000
     1.0000   1.0000   1.0000   1.0000   1.0000   1.0000   1.0000   1.0000
     0.0000   0.0000   0.0000   0.0000   0.0000   0.0000   0.0000   0.0000
     0.0000   0.0000   0.0000   0.0000   0.0000   0.0000   0.0000   0.0000
     0.0000   0.0000   0.0000   0.0000   0.0000   0.0000   0.0000   0.0000
     0.0000   0.0000   0.0000   0.0000   0.0000   0.0000   0.0000   0.0000

          k = 0.0000 0.1250 0.2500 (  1309 PWs)   bands (ev):

    -7.4229  -2.9732  -0.9206   0.6826   1.1507   2.6868   4.6265   4.7806
     5.9797   6.4059   7.1713   7.1842   7.4572  10.5955  11.0923  12.5120
    18.0473  19.0408  19.0966  19.7727  20.5537  20.8726  21.0559  21.1338
    21.9140  26.7599  27.6752  27.7651  28.3664  28.3673  29.0226  29.1490
    33.6081  33.6552  34.2415  34.9634  35.2372  35.6873  36.2304  36.7225
    38.2033  41.5723  42.5227  43.0911  43.6773  44.7067  45.1544  46.6055

     occupation numbers 
     1.0000   1.0000   1.0000   1.0000   1.0000   1.0000   1.0000   1.0000
     1.0000   1.0000   1.0000   1.0000   1.0000   1.0000   1.0000   1.0000
     0.0000   0.0000   0.0000   0.0000   0.0000   0.0000   0.0000   0.0000
     0.0000   0.0000   0.0000   0.0000   0.0000   0.0000   0.0000   0.0000
     0.0000   0.0000   0.0000   0.0000   0.0000   0.0000   0.0000   0.0000
     0.0000   0.0000   0.0000   0.0000   0.0000   0.0000   0.0000   0.0000

          k = 0.0000 0.1250 0.3750 (  1304 PWs)   bands (ev):

    -6.7109  -4.4715  -0.4098   0.5835   1.6428   2.5749   4.2490   5.0765
     6.0933   6.4248   6.7111   7.8474   8.4397   9.2598   9.8688  11.3153
    18.1128  18.6917  20.7675  21.8965  22.0866  22.6918  22.7511  22.9003
    24.1140  25.7757  25.7896  26.1448  26.6947  26.7248  27.6033  28.2570
    32.9220  33.2184  33.5919  34.4299  34.4325  35.6497  35.9182  36.1756
    39.5238  41.3327  42.5656  43.1626  44.1316  44.2208  44.9513  45.8314

     occupation numbers 
     1.0000   1.0000   1.0000   1.0000   1.0000   1.0000   1.0000   1.0000
     1.0000   1.0000   1.0000   1.0000   1.0000   1.0000   1.0000   1.0000
     0.0000   0.0000   0.0000   0.0000   0.0000   0.0000   0.0000   0.0000
     0.0000   0.0000   0.0000   0.0000   0.0000   0.0000   0.0000   0.0000
     0.0000   0.0000   0.0000   0.0000   0.0000   0.0000   0.0000   0.0000
     0.0000   0.0000   0.0000   0.0000   0.0000   0.0000   0.0000   0.0000

          k = 0.0000 0.1250-0.5000 (  1304 PWs)   bands (ev):

    -5.7235  -5.7232   0.1656   0.1656   2.1805   2.1809   4.3990   4.3991
     6.2386   6.2394   7.9144   7.9147   8.7568   8.7568   9.8343   9.8345
    18.3504  18.3507  22.7708  22.7714  23.9453  23.9463  24.1845  24.1856
    24.4104  24.4106  24.8426  24.8428  25.7223  25.7226  26.6073  26.6074
    32.8715  32.8719  33.5950  33.5959  35.2707  35.2726  35.7821  35.7831
    41.2595  41.2595  41.7620  41.7624  45.2100  45.2101  45.8396  45.8396

     occupation numbers 
     1.0000   1.0000   1.0000   1.0000   1.0000   1.0000   1.0000   1.0000
     1.0000   1.0000   1.0000   1.0000   1.0000   1.0000   1.0000   1.0000
     0.0000   0.0000   0.0000   0.0000   0.0000   0.0000   0.0000   0.0000
     0.0000   0.0000   0.0000   0.0000   0.0000   0.0000   0.0000   0.0000
     0.0000   0.0000   0.0000   0.0000   0.0000   0.0000   0.0000   0.0000
     0.0000   0.0000   0.0000   0.0000   0.0000   0.0000   0.0000   0.0000

          k = 0.0000 0.1250-0.3750 (  1304 PWs)   bands (ev):

    -6.7109  -4.4715  -0.4098   0.5835   1.6428   2.5749   4.2490   5.0765
     6.0933   6.4248   6.7111   7.8474   8.4397   9.2598   9.8688  11.3153
    18.1128  18.6917  20.7675  21.8965  22.0866  22.6918  22.7511  22.9003
    24.1140  25.7757  25.7896  26.1448  26.6947  26.7248  27.6033  28.2570
    32.9220  33.2184  33.5919  34.4299  34.4325  35.6497  35.9182  36.1756
    39.5238  41.3327  42.5656  43.1626  44.1316  44.2208  44.9513  45.8314

     occupation numbers 
     1.0000   1.0000   1.0000   1.0000   1.0000   1.0000   1.0000   1.0000
     1.0000   1.0000   1.0000   1.0000   1.0000   1.0000   1.0000   1.0000
     0.0000   0.0000   0.0000   0.0000   0.0000   0.0000   0.0000   0.0000
     0.0000   0.0000   0.0000   0.0000   0.0000   0.0000   0.0000   0.0000
     0.0000   0.0000   0.0000   0.0000   0.0000   0.0000   0.0000   0.0000
     0.0000   0.0000   0.0000   0.0000   0.0000   0.0000   0.0000   0.0000

          k = 0.0000 0.1250-0.2500 (  1309 PWs)   bands (ev):

    -7.4229  -2.9732  -0.9206   0.6826   1.1507   2.6868   4.6265   4.7806
     5.9797   6.4059   7.1713   7.1842   7.4572  10.5955  11.0923  12.5120
    18.0473  19.0408  19.0966  19.7727  20.5537  20.8726  21.0559  21.1338
    21.9140  26.7599  27.6752  27.7651  28.3664  28.3673  29.0226  29.1490
    33.6081  33.6552  34.2415  34.9634  35.2372  35.6873  36.2304  36.7225
    38.2033  41.5723  42.5227  43.0911  43.6773  44.7067  45.1544  46.6055

     occupation numbers 
     1.0000   1.0000   1.0000   1.0000   1.0000   1.0000   1.0000   1.0000
     1.0000   1.0000   1.0000   1.0000   1.0000   1.0000   1.0000   1.0000
     0.0000   0.0000   0.0000   0.0000   0.0000   0.0000   0.0000   0.0000
     0.0000   0.0000   0.0000   0.0000   0.0000   0.0000   0.0000   0.0000
     0.0000   0.0000   0.0000   0.0000   0.0000   0.0000   0.0000   0.0000
     0.0000   0.0000   0.0000   0.0000   0.0000   0.0000   0.0000   0.0000

          k = 0.0000 0.1250-0.1250 (  1317 PWs)   bands (ev):

    -7.8525  -1.2559  -1.2558   0.6287   0.8048   2.6364   2.6368   5.7368
     6.7924   6.7930   6.9002   6.9008   7.2354  11.8625  12.2129  13.1000
    18.2096  18.2099  18.3046  19.1710  19.4156  19.4157  19.6920  19.9707
    19.9837  26.7686  29.0732  29.0740  29.3480  29.4876  29.4896  29.6833
    33.0132  34.8889  35.8057  35.8067  36.2395  36.2398  36.5172  36.8017
    37.8008  41.5099  42.3223  42.9456  45.0894  45.0905  45.4419  45.7652

     occupation numbers 
     1.0000   1.0000   1.0000   1.0000   1.0000   1.0000   1.0000   1.0000
     1.0000   1.0000   1.0000   1.0000   1.0000   1.0000   1.0000   1.0000
     0.0000   0.0000   0.0000   0.0000   0.0000   0.0000   0.0000   0.0000
     0.0000   0.0000   0.0000   0.0000   0.0000   0.0000   0.0000   0.0000
     0.0000   0.0000   0.0000   0.0000   0.0000   0.0000   0.0000   0.0000
     0.0000   0.0000   0.0000   0.0000   0.0000   0.0000   0.0000   0.0000

          k = 0.0000 0.2500 0.0000 (  1318 PWs)   bands (ev):

    -7.5658  -3.1014   0.8826   0.8828   0.8828   0.8831   4.7151   5.9860
     5.9866   5.9866   5.9872   7.5545   7.5545  11.5612  11.5612  11.9586
    17.4406  18.4728  20.0420  20.1748  20.1753  20.1753  20.1757  21.0848
    21.0848  26.5531  28.3635  28.3635  28.7992  28.8006  28.8006  28.8019
    33.4831  34.0493  35.1104  35.3610  35.3613  35.3613  35.3620  36.6775
    40.6469  42.1692  42.1692  44.3094  44.3095  44.3095  44.3097  45.4161

     occupation numbers 
     1.0000   1.0000   1.0000   1.0000   1.0000   1.0000   1.0000   1.0000
     1.0000   1.0000   1.0000   1.0000   1.0000   1.0000   1.0000   1.0000
     0.0000   0.0000   0.0000   0.0000   0.0000   0.0000   0.0000   0.0000
     0.0000   0.0000   0.0000   0.0000   0.0000   0.0000   0.0000   0.0000
     0.0000   0.0000   0.0000   0.0000   0.0000   0.0000   0.0000   0.0000
     0.0000   0.0000   0.0000   0.0000   0.0000   0.0000   0.0000   0.0000

          k = 0.0000 0.2500 0.1250 (  1309 PWs)   bands (ev):

    -7.4229  -2.9732  -0.9206   0.6826   1.1507   2.6868   4.6265   4.7806
     5.9797   6.4059   7.1713   7.1842   7.4572  10.5955  11.0923  12.5120
    18.0473  19.0408  19.0966  19.7727  20.5537  20.8726  21.0559  21.1338
    21.9140  26.7599  27.6752  27.7651  28.3664  28.3673  29.0226  29.1490
    33.6081  33.6552  34.2415  34.9634  35.2372  35.6873  36.2304  36.7225
    38.2033  41.5723  42.5227  43.0911  43.6773  44.7067  45.1544  46.6055

     occupation numbers 
     1.0000   1.0000   1.0000   1.0000   1.0000   1.0000   1.0000   1.0000
     1.0000   1.0000   1.0000   1.0000   1.0000   1.0000   1.0000   1.0000
     0.0000   0.0000   0.0000   0.0000   0.0000   0.0000   0.0000   0.0000
     0.0000   0.0000   0.0000   0.0000   0.0000   0.0000   0.0000   0.0000
     0.0000   0.0000   0.0000   0.0000   0.0000   0.0000   0.0000   0.0000
     0.0000   0.0000   0.0000   0.0000   0.0000   0.0000   0.0000   0.0000

          k = 0.0000 0.2500 0.2500 (  1298 PWs)   bands (ev):

    -6.9955  -2.5942  -2.5941   0.3327   1.5756   3.9933   4.2878   4.2887
     6.3071   6.3075   7.3569   7.3570   7.9289   9.3080  10.0410  12.5253
    18.9862  19.6211  19.6216  20.0346  21.3424  21.4524  21.9012  21.9014
    24.0280  26.2527  26.2528  27.0276  27.6153  28.3614  28.3634  28.8604
    31.9525  33.9516  34.1479  34.9358  34.9362  35.4954  35.4967  36.4465
    37.5764  39.1960  42.6955  42.6970  43.5294  43.8585  46.2332  46.2332

     occupation numbers 
     1.0000   1.0000   1.0000   1.0000   1.0000   1.0000   1.0000   1.0000
     1.0000   1.0000   1.0000   1.0000   1.0000   1.0000   1.0000   1.0000
     0.0000   0.0000   0.0000   0.0000   0.0000   0.0000   0.0000   0.0000
     0.0000   0.0000   0.0000   0.0000   0.0000   0.0000   0.0000   0.0000
     0.0000   0.0000   0.0000   0.0000   0.0000   0.0000   0.0000   0.0000
     0.0000   0.0000   0.0000   0.0000   0.0000   0.0000   0.0000   0.0000

          k = 0.0000 0.2500 0.3750 (  1313 PWs)   bands (ev):

    -6.2881  -4.0694  -1.9855  -0.3472   2.1707   3.6614   3.9197   5.3047
     5.5960   6.9251   7.4975   8.0146   8.0776   8.8048   8.8676  11.7507
    19.6719  19.9493  20.0996  21.7391  22.2152  22.8764  23.1556  23.2435
    24.8265  24.8818  26.0135  26.3643  26.4871  26.7690  27.9776  28.2766
    30.9611  33.0695  33.4999  34.4128  34.8118  35.0034  35.7603  36.9215
    37.2961  38.9073  40.9778  41.0131  44.9421  45.0137  45.8929  46.8541

     occupation numbers 
     1.0000   1.0000   1.0000   1.0000   1.0000   1.0000   1.0000   1.0000
     1.0000   1.0000   1.0000   1.0000   1.0000   1.0000   1.0000   1.0000
     0.0000   0.0000   0.0000   0.0000   0.0000   0.0000   0.0000   0.0000
     0.0000   0.0000   0.0000   0.0000   0.0000   0.0000   0.0000   0.0000
     0.0000   0.0000   0.0000   0.0000   0.0000   0.0000   0.0000   0.0000
     0.0000   0.0000   0.0000   0.0000   0.0000   0.0000   0.0000   0.0000

          k = 0.0000 0.2500-0.5000 (  1304 PWs)   bands (ev):

    -5.3082  -5.3079  -1.1972  -1.1970   2.8981   2.8986   4.4395   4.4395
     6.7857   6.7861   7.7961   7.7961   7.8217   7.8226  10.4003  10.4008
    19.8647  19.8648  21.6674  21.6676  23.3197  23.3197  24.0465  24.0474
    24.8406  24.8408  25.0309  25.0318  26.3262  26.3268  27.7766  27.7767
    31.3622  31.3625  33.9394  33.9401  34.8236  34.8253  36.1248  36.1259
    39.0025  39.0027  39.7610  39.7614  46.1444  46.1445  46.4713  46.4713

     occupation numbers 
     1.0000   1.0000   1.0000   1.0000   1.0000   1.0000   1.0000   1.0000
     1.0000   1.0000   1.0000   1.0000   1.0000   1.0000   1.0000   1.0000
     0.0000   0.0000   0.0000   0.0000   0.0000   0.0000   0.0000   0.0000
     0.0000   0.0000   0.0000   0.0000   0.0000   0.0000   0.0000   0.0000
     0.0000   0.0000   0.0000   0.0000   0.0000   0.0000   0.0000   0.0000
     0.0000   0.0000   0.0000   0.0000   0.0000   0.0000   0.0000   0.0000

          k = 0.0000 0.2500-0.3750 (  1313 PWs)   bands (ev):

    -6.2881  -4.0694  -1.9855  -0.3472   2.1707   3.6614   3.9197   5.3047
     5.5960   6.9251   7.4975   8.0146   8.0776   8.8048   8.8676  11.7507
    19.6719  19.9493  20.0996  21.7391  22.2152  22.8764  23.1556  23.2435
    24.8265  24.8818  26.0135  26.3643  26.4871  26.7690  27.9776  28.2766
    30.9611  33.0695  33.4999  34.4128  34.8118  35.0034  35.7603  36.9215
    37.2961  38.9073  40.9778  41.0131  44.9421  45.0137  45.8929  46.8541

     occupation numbers 
     1.0000   1.0000   1.0000   1.0000   1.0000   1.0000   1.0000   1.0000
     1.0000   1.0000   1.0000   1.0000   1.0000   1.0000   1.0000   1.0000
     0.0000   0.0000   0.0000   0.0000   0.0000   0.0000   0.0000   0.0000
     0.0000   0.0000   0.0000   0.0000   0.0000   0.0000   0.0000   0.0000
     0.0000   0.0000   0.0000   0.0000   0.0000   0.0000   0.0000   0.0000
     0.0000   0.0000   0.0000   0.0000   0.0000   0.0000   0.0000   0.0000

          k = 0.0000 0.2500-0.2500 (  1298 PWs)   bands (ev):

    -6.9955  -2.5942  -2.5941   0.3327   1.5756   3.9933   4.2878   4.2887
     6.3071   6.3075   7.3569   7.3570   7.9289   9.3080  10.0410  12.5253
    18.9862  19.6211  19.6216  20.0346  21.3424  21.4524  21.9012  21.9014
    24.0280  26.2527  26.2528  27.0276  27.6153  28.3614  28.3634  28.8604
    31.9525  33.9516  34.1479  34.9358  34.9362  35.4954  35.4967  36.4465
    37.5764  39.1960  42.6955  42.6970  43.5294  43.8585  46.2332  46.2332

     occupation numbers 
     1.0000   1.0000   1.0000   1.0000   1.0000   1.0000   1.0000   1.0000
     1.0000   1.0000   1.0000   1.0000   1.0000   1.0000   1.0000   1.0000
     0.0000   0.0000   0.0000   0.0000   0.0000   0.0000   0.0000   0.0000
     0.0000   0.0000   0.0000   0.0000   0.0000   0.0000   0.0000   0.0000
     0.0000   0.0000   0.0000   0.0000   0.0000   0.0000   0.0000   0.0000
     0.0000   0.0000   0.0000   0.0000   0.0000   0.0000   0.0000   0.0000

          k = 0.0000 0.2500-0.1250 (  1309 PWs)   bands (ev):

    -7.4229  -2.9732  -0.9206   0.6826   1.1507   2.6868   4.6265   4.7806
     5.9797   6.4059   7.1713   7.1842   7.4572  10.5955  11.0923  12.5120
    18.0473  19.0408  19.0966  19.7727  20.5537  20.8726  21.0559  21.1338
    21.9140  26.7599  27.6752  27.7651  28.3664  28.3673  29.0226  29.1490
    33.6081  33.6552  34.2415  34.9634  35.2372  35.6873  36.2304  36.7225
    38.2033  41.5723  42.5227  43.0911  43.6773  44.7067  45.1544  46.6055

     occupation numbers 
     1.0000   1.0000   1.0000   1.0000   1.0000   1.0000   1.0000   1.0000
     1.0000   1.0000   1.0000   1.0000   1.0000   1.0000   1.0000   1.0000
     0.0000   0.0000   0.0000   0.0000   0.0000   0.0000   0.0000   0.0000
     0.0000   0.0000   0.0000   0.0000   0.0000   0.0000   0.0000   0.0000
     0.0000   0.0000   0.0000   0.0000   0.0000   0.0000   0.0000   0.0000
     0.0000   0.0000   0.0000   0.0000   0.0000   0.0000   0.0000   0.0000

          k = 0.0000 0.3750 0.0000 (  1314 PWs)   bands (ev):

    -6.8525  -4.6067   1.1833   1.1835   1.1835   1.1837   5.2857   5.2861
     5.2862   5.2867   6.8049   8.2394   8.2394  10.3050  10.3050  10.5266
    17.5025  18.0965  21.6243  22.2366  22.2373  22.2373  22.2380  22.9296
    22.9296  25.4576  26.7123  26.7123  27.1364  27.1373  27.1373  27.1383
    33.0081  34.2254  34.4327  34.7660  34.7665  34.7665  34.7673  36.2223
    41.5590  43.7973  43.7973  43.8416  43.8416  43.8416  43.8418  44.4794

     occupation numbers 
     1.0000   1.0000   1.0000   1.0000   1.0000   1.0000   1.0000   1.0000
     1.0000   1.0000   1.0000   1.0000   1.0000   1.0000   1.0000   1.0000
     0.0000   0.0000   0.0000   0.0000   0.0000   0.0000   0.0000   0.0000
     0.0000   0.0000   0.0000   0.0000   0.0000   0.0000   0.0000   0.0000
     0.0000   0.0000   0.0000   0.0000   0.0000   0.0000   0.0000   0.0000
     0.0000   0.0000   0.0000   0.0000   0.0000   0.0000   0.0000   0.0000

          k = 0.0000 0.3750 0.1250 (  1304 PWs)   bands (ev):

    -6.7109  -4.4715  -0.4098   0.5835   1.6428   2.5749   4.2490   5.0765
     6.0933   6.4248   6.7111   7.8474   8.4397   9.2598   9.8688  11.3153
    18.1128  18.6917  20.7675  21.8965  22.0866  22.6918  22.7511  22.9003
    24.1140  25.7757  25.7896  26.1448  26.6947  26.7248  27.6033  28.2570
    32.9220  33.2184  33.5919  34.4299  34.4325  35.6497  35.9182  36.1756
    39.5238  41.3327  42.5656  43.1626  44.1316  44.2208  44.9513  45.8314

     occupation numbers 
     1.0000   1.0000   1.0000   1.0000   1.0000   1.0000   1.0000   1.0000
     1.0000   1.0000   1.0000   1.0000   1.0000   1.0000   1.0000   1.0000
     0.0000   0.0000   0.0000   0.0000   0.0000   0.0000   0.0000   0.0000
     0.0000   0.0000   0.0000   0.0000   0.0000   0.0000   0.0000   0.0000
     0.0000   0.0000   0.0000   0.0000   0.0000   0.0000   0.0000   0.0000
     0.0000   0.0000   0.0000   0.0000   0.0000   0.0000   0.0000   0.0000

          k = 0.0000 0.3750 0.2500 (  1313 PWs)   bands (ev):

    -6.2881  -4.0694  -1.9855  -0.3472   2.1707   3.6614   3.9197   5.3047
     5.5960   6.9251   7.4975   8.0146   8.0776   8.8048   8.8676  11.7507
    19.6719  19.9493  20.0996  21.7391  22.2152  22.8764  23.1556  23.2435
    24.8265  24.8818  26.0135  26.3643  26.4871  26.7690  27.9776  28.2766
    30.9611  33.0695  33.4999  34.4128  34.8118  35.0034  35.7603  36.9215
    37.2961  38.9073  40.9778  41.0131  44.9421  45.0137  45.8929  46.8541

     occupation numbers 
     1.0000   1.0000   1.0000   1.0000   1.0000   1.0000   1.0000   1.0000
     1.0000   1.0000   1.0000   1.0000   1.0000   1.0000   1.0000   1.0000
     0.0000   0.0000   0.0000   0.0000   0.0000   0.0000   0.0000   0.0000
     0.0000   0.0000   0.0000   0.0000   0.0000   0.0000   0.0000   0.0000
     0.0000   0.0000   0.0000   0.0000   0.0000   0.0000   0.0000   0.0000
     0.0000   0.0000   0.0000   0.0000   0.0000   0.0000   0.0000   0.0000

          k = 0.0000 0.3750 0.3750 (  1308 PWs)   bands (ev):

    -5.5890  -3.4118  -3.4116  -1.4615   2.8485   4.2141   4.6275   4.6287
     5.8659   5.8664   6.7880   7.7348   8.9940   9.1437   9.1438  11.5370
    20.0395  21.4312  21.7234  21.7238  21.9239  22.6870  22.6872  23.3286
    25.3350  25.3351  25.4359  26.8777  26.8796  26.9097  27.4731  27.9201
    30.0693  33.3633  33.5055  33.5060  34.3277  35.0335  35.0342  36.1336
    36.9766  38.1534  39.3381  39.3400  46.0648  46.0772  46.5282  46.5284

     occupation numbers 
     1.0000   1.0000   1.0000   1.0000   1.0000   1.0000   1.0000   1.0000
     1.0000   1.0000   1.0000   1.0000   1.0000   1.0000   1.0000   1.0000
     0.0000   0.0000   0.0000   0.0000   0.0000   0.0000   0.0000   0.0000
     0.0000   0.0000   0.0000   0.0000   0.0000   0.0000   0.0000   0.0000
     0.0000   0.0000   0.0000   0.0000   0.0000   0.0000   0.0000   0.0000
     0.0000   0.0000   0.0000   0.0000   0.0000   0.0000   0.0000   0.0000

          k = 0.0000 0.3750-0.5000 (  1306 PWs)   bands (ev):

    -4.6242  -4.6239  -2.5242  -2.5239   3.6813   3.6818   4.9130   4.9131
     5.6518   5.6523   6.6980   6.6981   9.2916   9.2926  10.6070  10.6078
    21.0759  21.0760  21.7491  21.7494  22.0920  22.0920  23.8460  23.8468
    24.9531  24.9534  26.3574  26.3584  26.9716  26.9724  27.1414  27.1417
    31.6108  31.6115  33.9081  33.9083  34.0462  34.0476  35.2432  35.2437
    37.9156  37.9162  38.4957  38.4960  46.4639  46.4640  46.6642  46.6643

     occupation numbers 
     1.0000   1.0000   1.0000   1.0000   1.0000   1.0000   1.0000   1.0000
     1.0000   1.0000   1.0000   1.0000   1.0000   1.0000   1.0000   1.0000
     0.0000   0.0000   0.0000   0.0000   0.0000   0.0000   0.0000   0.0000
     0.0000   0.0000   0.0000   0.0000   0.0000   0.0000   0.0000   0.0000
     0.0000   0.0000   0.0000   0.0000   0.0000   0.0000   0.0000   0.0000
     0.0000   0.0000   0.0000   0.0000   0.0000   0.0000   0.0000   0.0000

          k = 0.0000 0.3750-0.3750 (  1308 PWs)   bands (ev):

    -5.5890  -3.4118  -3.4116  -1.4615   2.8485   4.2141   4.6275   4.6287
     5.8659   5.8664   6.7880   7.7348   8.9940   9.1437   9.1438  11.5370
    20.0395  21.4312  21.7234  21.7238  21.9239  22.6870  22.6872  23.3286
    25.3350  25.3351  25.4359  26.8777  26.8796  26.9097  27.4731  27.9201
    30.0693  33.3633  33.5055  33.5060  34.3277  35.0335  35.0342  36.1336
    36.9766  38.1534  39.3381  39.3400  46.0648  46.0772  46.5282  46.5284

     occupation numbers 
[...]
    32.7485  32.7493  34.1310  34.1321  35.7334  35.7340  37.0530  37.0538
    38.2738  38.2742  38.4658  38.4660  40.7729  40.7732  41.7935  41.7936

     occupation numbers 
     1.0000   1.0000   1.0000   1.0000   1.0000   1.0000   1.0000   1.0000
     1.0000   1.0000   1.0000   1.0000   1.0000   1.0000   1.0000   1.0000
     0.0000   0.0000   0.0000   0.0000   0.0000   0.0000   0.0000   0.0000
     0.0000   0.0000   0.0000   0.0000   0.0000   0.0000   0.0000   0.0000
     0.0000   0.0000   0.0000   0.0000   0.0000   0.0000   0.0000   0.0000
     0.0000   0.0000   0.0000   0.0000   0.0000   0.0000   0.0000   0.0000

          k =-0.5000 0.2500-0.5000 (  1332 PWs)   bands (ev):

    -3.2067  -3.2063  -3.2063  -3.2062   1.7608   1.7620   1.7621   1.7621
     8.7097   8.7108   8.7113   8.7113  10.3762  10.3772  10.3772  10.3782
    21.4968  21.4969  21.4969  21.4974  22.4523  22.4529  22.4529  22.4534
    23.4529  23.4540  23.4545  23.4545  28.6314  28.6333  28.6337  28.6337
    33.7481  33.7495  33.7495  33.7498  36.2856  36.2864  36.2864  36.2872
    37.7817  37.7838  37.7849  37.7849  41.4916  41.4921  41.4928  41.4928

     occupation numbers 
     1.0000   1.0000   1.0000   1.0000   1.0000   1.0000   1.0000   1.0000
     1.0000   1.0000   1.0000   1.0000   1.0000   1.0000   1.0000   1.0000
     0.0000   0.0000   0.0000   0.0000   0.0000   0.0000   0.0000   0.0000
     0.0000   0.0000   0.0000   0.0000   0.0000   0.0000   0.0000   0.0000
     0.0000   0.0000   0.0000   0.0000   0.0000   0.0000   0.0000   0.0000
     0.0000   0.0000   0.0000   0.0000   0.0000   0.0000   0.0000   0.0000

          k =-0.5000 0.2500-0.3750 (  1314 PWs)   bands (ev):

    -4.0982  -4.0979  -2.1853  -2.1851   1.0154   1.0161   2.8591   2.8597
     7.9613   7.9617   9.3741   9.3745   9.6008   9.6019  10.5054  10.5062
    21.2383  21.2386  21.3579  21.3580  22.2967  22.2968  22.6175  22.6183
    23.2921  23.2924  24.8073  24.8076  27.9855  27.9864  28.5643  28.5652
    32.7485  32.7493  34.1310  34.1321  35.7334  35.7340  37.0530  37.0538
    38.2738  38.2742  38.4658  38.4660  40.7729  40.7732  41.7935  41.7936

     occupation numbers 
     1.0000   1.0000   1.0000   1.0000   1.0000   1.0000   1.0000   1.0000
     1.0000   1.0000   1.0000   1.0000   1.0000   1.0000   1.0000   1.0000
     0.0000   0.0000   0.0000   0.0000   0.0000   0.0000   0.0000   0.0000
     0.0000   0.0000   0.0000   0.0000   0.0000   0.0000   0.0000   0.0000
     0.0000   0.0000   0.0000   0.0000   0.0000   0.0000   0.0000   0.0000
     0.0000   0.0000   0.0000   0.0000   0.0000   0.0000   0.0000   0.0000

          k =-0.5000 0.2500-0.2500 (  1324 PWs)   bands (ev):

    -4.7638  -4.7635  -1.3757  -1.3757   0.9500   0.9508   4.1900   4.1906
     6.9831   6.9833   8.6048   8.6058   9.7660   9.7661  10.0901  10.0911
    20.2995  20.2998  21.5987  21.5991  22.7291  22.7301  23.3419  23.3421
    23.3697  23.3700  26.3024  26.3025  26.7500  26.7509  28.1136  28.1144
    31.6127  31.6134  34.3892  34.3906  35.1082  35.1088  37.1304  37.1316
    39.5620  39.5621  39.6169  39.6178  40.3558  40.3561  42.4526  42.4527

     occupation numbers 
     1.0000   1.0000   1.0000   1.0000   1.0000   1.0000   1.0000   1.0000
     1.0000   1.0000   1.0000   1.0000   1.0000   1.0000   1.0000   1.0000
     0.0000   0.0000   0.0000   0.0000   0.0000   0.0000   0.0000   0.0000
     0.0000   0.0000   0.0000   0.0000   0.0000   0.0000   0.0000   0.0000
     0.0000   0.0000   0.0000   0.0000   0.0000   0.0000   0.0000   0.0000
     0.0000   0.0000   0.0000   0.0000   0.0000   0.0000   0.0000   0.0000

          k =-0.5000 0.2500-0.1250 (  1314 PWs)   bands (ev):

    -5.1713  -5.1710  -1.1816  -1.1815   1.8991   1.8998   5.5639   5.5643
     5.6542   5.6547   7.9984   7.9993   8.8136   8.8140  10.2955  10.2961
    19.9143  19.9145  21.6820  21.6823  23.3514  23.3515  23.4350  23.4359
    24.3428  24.3431  25.5847  25.5856  26.8161  26.8165  27.6987  27.6992
    31.2213  31.2216  34.2612  34.2618  34.7444  34.7459  36.5619  36.5630
    39.2096  39.2097  39.7676  39.7681  42.8921  42.8923  44.6406  44.6407

     occupation numbers 
     1.0000   1.0000   1.0000   1.0000   1.0000   1.0000   1.0000   1.0000
     1.0000   1.0000   1.0000   1.0000   1.0000   1.0000   1.0000   1.0000
     0.0000   0.0000   0.0000   0.0000   0.0000   0.0000   0.0000   0.0000
     0.0000   0.0000   0.0000   0.0000   0.0000   0.0000   0.0000   0.0000
     0.0000   0.0000   0.0000   0.0000   0.0000   0.0000   0.0000   0.0000
     0.0000   0.0000   0.0000   0.0000   0.0000   0.0000   0.0000   0.0000

          k =-0.5000 0.3750 0.0000 (  1306 PWs)   bands (ev):

    -4.6242  -4.6239  -2.5242  -2.5239   3.6813   3.6818   4.9130   4.9131
     5.6518   5.6523   6.6980   6.6981   9.2916   9.2926  10.6070  10.6078
    21.0759  21.0760  21.7491  21.7494  22.0920  22.0920  23.8460  23.8468
    24.9531  24.9534  26.3574  26.3584  26.9716  26.9724  27.1414  27.1417
    31.6108  31.6115  33.9081  33.9083  34.0462  34.0476  35.2432  35.2437
    37.9156  37.9162  38.4957  38.4960  46.4639  46.4640  46.6642  46.6643

     occupation numbers 
     1.0000   1.0000   1.0000   1.0000   1.0000   1.0000   1.0000   1.0000
     1.0000   1.0000   1.0000   1.0000   1.0000   1.0000   1.0000   1.0000
     0.0000   0.0000   0.0000   0.0000   0.0000   0.0000   0.0000   0.0000
     0.0000   0.0000   0.0000   0.0000   0.0000   0.0000   0.0000   0.0000
     0.0000   0.0000   0.0000   0.0000   0.0000   0.0000   0.0000   0.0000
     0.0000   0.0000   0.0000   0.0000   0.0000   0.0000   0.0000   0.0000

          k =-0.5000 0.3750 0.1250 (  1304 PWs)   bands (ev):

    -4.4912  -4.4909  -2.4247  -2.4245   2.4454   2.4460   4.3969   4.3975
     6.2475   6.2480   7.9437   7.9442   9.3707   9.3717  10.5858  10.5867
    21.1549  21.1549  21.5113  21.5115  22.1904  22.1905  23.4105  23.4112
    24.3334  24.3338  26.0754  26.0759  26.9961  26.9971  27.9167  27.9175
    31.8785  31.8793  33.9855  33.9867  34.5064  34.5072  35.8442  35.8447
    37.9967  37.9972  38.4449  38.4452  43.5528  43.5530  44.5012  44.5012

     occupation numbers 
     1.0000   1.0000   1.0000   1.0000   1.0000   1.0000   1.0000   1.0000
     1.0000   1.0000   1.0000   1.0000   1.0000   1.0000   1.0000   1.0000
     0.0000   0.0000   0.0000   0.0000   0.0000   0.0000   0.0000   0.0000
     0.0000   0.0000   0.0000   0.0000   0.0000   0.0000   0.0000   0.0000
     0.0000   0.0000   0.0000   0.0000   0.0000   0.0000   0.0000   0.0000
     0.0000   0.0000   0.0000   0.0000   0.0000   0.0000   0.0000   0.0000

          k =-0.5000 0.3750 0.2500 (  1314 PWs)   bands (ev):

    -4.0982  -4.0979  -2.1853  -2.1851   1.0154   1.0161   2.8591   2.8597
     7.9613   7.9617   9.3741   9.3745   9.6008   9.6019  10.5054  10.5062
    21.2383  21.2386  21.3579  21.3580  22.2967  22.2968  22.6175  22.6183
    23.2921  23.2924  24.8073  24.8076  27.9855  27.9864  28.5643  28.5652
    32.7485  32.7493  34.1310  34.1321  35.7334  35.7340  37.0530  37.0538
    38.2738  38.2742  38.4658  38.4660  40.7729  40.7732  41.7935  41.7936

     occupation numbers 
     1.0000   1.0000   1.0000   1.0000   1.0000   1.0000   1.0000   1.0000
     1.0000   1.0000   1.0000   1.0000   1.0000   1.0000   1.0000   1.0000
     0.0000   0.0000   0.0000   0.0000   0.0000   0.0000   0.0000   0.0000
     0.0000   0.0000   0.0000   0.0000   0.0000   0.0000   0.0000   0.0000
     0.0000   0.0000   0.0000   0.0000   0.0000   0.0000   0.0000   0.0000
     0.0000   0.0000   0.0000   0.0000   0.0000   0.0000   0.0000   0.0000

          k =-0.5000 0.3750 0.3750 (  1318 PWs)   bands (ev):

    -3.4713  -3.4710  -2.1295  -2.1295   0.2063   0.2070   1.5162   1.5168
     9.3195   9.3195   9.9899   9.9912  10.2575  10.2576  10.3688  10.3700
    21.3635  21.3638  21.5519  21.5520  22.1154  22.1163  22.2414  22.2416
    22.4383  22.4387  23.4433  23.4435  28.6739  28.6748  28.8687  28.8696
    33.9313  33.9322  34.4701  34.4709  36.9738  36.9741  37.4549  37.4563
    38.6368  38.6372  39.0208  39.0221  39.1965  39.1966  39.9151  39.9152

     occupation numbers 
     1.0000   1.0000   1.0000   1.0000   1.0000   1.0000   1.0000   1.0000
     1.0000   1.0000   1.0000   1.0000   1.0000   1.0000   1.0000   1.0000
     0.0000   0.0000   0.0000   0.0000   0.0000   0.0000   0.0000   0.0000
     0.0000   0.0000   0.0000   0.0000   0.0000   0.0000   0.0000   0.0000
     0.0000   0.0000   0.0000   0.0000   0.0000   0.0000   0.0000   0.0000
     0.0000   0.0000   0.0000   0.0000   0.0000   0.0000   0.0000   0.0000

          k =-0.5000 0.3750-0.5000 (  1324 PWs)   bands (ev):

    -2.7005  -2.7003  -2.7003  -2.7001   0.5114   0.5128   0.5128   0.5128
     9.9873   9.9882   9.9889   9.9889  10.4518  10.4528  10.4529  10.4538
    21.7017  21.7020  21.7020  21.7024  21.9474  21.9479  21.9479  21.9482
    22.4634  22.4639  22.4643  22.4643  28.9159  28.9178  28.9180  28.9180
    34.6377  34.6392  34.6392  34.6392  37.5599  37.5625  37.5630  37.5630
    38.1903  38.1915  38.1915  38.1925  39.7868  39.7877  39.7887  39.7887

     occupation numbers 
     1.0000   1.0000   1.0000   1.0000   1.0000   1.0000   1.0000   1.0000
     1.0000   1.0000   1.0000   1.0000   1.0000   1.0000   1.0000   1.0000
     0.0000   0.0000   0.0000   0.0000   0.0000   0.0000   0.0000   0.0000
     0.0000   0.0000   0.0000   0.0000   0.0000   0.0000   0.0000   0.0000
     0.0000   0.0000   0.0000   0.0000   0.0000   0.0000   0.0000   0.0000
     0.0000   0.0000   0.0000   0.0000   0.0000   0.0000   0.0000   0.0000

          k =-0.5000 0.3750-0.3750 (  1318 PWs)   bands (ev):

    -3.4713  -3.4710  -2.1295  -2.1295   0.2063   0.2070   1.5162   1.5168
     9.3195   9.3195   9.9899   9.9912  10.2575  10.2576  10.3688  10.3700
    21.3635  21.3638  21.5519  21.5520  22.1154  22.1163  22.2414  22.2416
    22.4383  22.4387  23.4433  23.4435  28.6739  28.6748  28.8687  28.8696
    33.9313  33.9322  34.4701  34.4709  36.9738  36.9741  37.4549  37.4563
    38.6368  38.6372  39.0208  39.0221  39.1965  39.1966  39.9151  39.9152

     occupation numbers 
     1.0000   1.0000   1.0000   1.0000   1.0000   1.0000   1.0000   1.0000
     1.0000   1.0000   1.0000   1.0000   1.0000   1.0000   1.0000   1.0000
     0.0000   0.0000   0.0000   0.0000   0.0000   0.0000   0.0000   0.0000
     0.0000   0.0000   0.0000   0.0000   0.0000   0.0000   0.0000   0.0000
     0.0000   0.0000   0.0000   0.0000   0.0000   0.0000   0.0000   0.0000
     0.0000   0.0000   0.0000   0.0000   0.0000   0.0000   0.0000   0.0000

          k =-0.5000 0.3750-0.2500 (  1314 PWs)   bands (ev):

    -4.0982  -4.0979  -2.1853  -2.1851   1.0154   1.0161   2.8591   2.8597
     7.9613   7.9617   9.3741   9.3745   9.6008   9.6019  10.5054  10.5062
    21.2383  21.2386  21.3579  21.3580  22.2967  22.2968  22.6175  22.6183
    23.2921  23.2924  24.8073  24.8076  27.9855  27.9864  28.5643  28.5652
    32.7485  32.7493  34.1310  34.1321  35.7334  35.7340  37.0530  37.0538
    38.2738  38.2742  38.4658  38.4660  40.7729  40.7732  41.7935  41.7936

     occupation numbers 
     1.0000   1.0000   1.0000   1.0000   1.0000   1.0000   1.0000   1.0000
     1.0000   1.0000   1.0000   1.0000   1.0000   1.0000   1.0000   1.0000
     0.0000   0.0000   0.0000   0.0000   0.0000   0.0000   0.0000   0.0000
     0.0000   0.0000   0.0000   0.0000   0.0000   0.0000   0.0000   0.0000
     0.0000   0.0000   0.0000   0.0000   0.0000   0.0000   0.0000   0.0000
     0.0000   0.0000   0.0000   0.0000   0.0000   0.0000   0.0000   0.0000

          k =-0.5000 0.3750-0.1250 (  1304 PWs)   bands (ev):

    -4.4912  -4.4909  -2.4247  -2.4245   2.4454   2.4460   4.3969   4.3975
     6.2475   6.2480   7.9437   7.9442   9.3707   9.3717  10.5858  10.5867
    21.1549  21.1549  21.5113  21.5115  22.1904  22.1905  23.4105  23.4112
    24.3334  24.3338  26.0754  26.0759  26.9961  26.9971  27.9167  27.9175
    31.8785  31.8793  33.9855  33.9867  34.5064  34.5072  35.8442  35.8447
    37.9967  37.9972  38.4449  38.4452  43.5528  43.5530  44.5012  44.5012

     occupation numbers 
     1.0000   1.0000   1.0000   1.0000   1.0000   1.0000   1.0000   1.0000
     1.0000   1.0000   1.0000   1.0000   1.0000   1.0000   1.0000   1.0000
     0.0000   0.0000   0.0000   0.0000   0.0000   0.0000   0.0000   0.0000
     0.0000   0.0000   0.0000   0.0000   0.0000   0.0000   0.0000   0.0000
     0.0000   0.0000   0.0000   0.0000   0.0000   0.0000   0.0000   0.0000
     0.0000   0.0000   0.0000   0.0000   0.0000   0.0000   0.0000   0.0000

          k =-0.5000-0.5000 0.0000 (  1308 PWs)   bands (ev):

    -3.6866  -3.6862  -3.6862  -3.6860   4.5996   4.6007   4.6013   4.6013
     5.6961   5.6964   5.6966   5.6966  10.2741  10.2751  10.2751  10.2761
    21.2246  21.2246  21.2248  21.2250  23.2810  23.2818  23.2818  23.2824
    25.6185  25.6195  25.6212  25.6213  27.1568  27.1581  27.1581  27.1588
    32.9054  32.9071  32.9071  32.9076  34.1011  34.1011  34.1011  34.1011
    37.9560  37.9574  37.9591  37.9591  46.5399  46.5401  46.5402  46.5402

     occupation numbers 
     1.0000   1.0000   1.0000   1.0000   1.0000   1.0000   1.0000   1.0000
     1.0000   1.0000   1.0000   1.0000   1.0000   1.0000   1.0000   1.0000
     0.0000   0.0000   0.0000   0.0000   0.0000   0.0000   0.0000   0.0000
     0.0000   0.0000   0.0000   0.0000   0.0000   0.0000   0.0000   0.0000
     0.0000   0.0000   0.0000   0.0000   0.0000   0.0000   0.0000   0.0000
     0.0000   0.0000   0.0000   0.0000   0.0000   0.0000   0.0000   0.0000

          k =-0.5000-0.5000 0.1250 (  1316 PWs)   bands (ev):

    -3.5627  -3.5623  -3.5623  -3.5621   3.3037   3.3049   3.3051   3.3051
     7.0497   7.0508   7.0511   7.0511  10.3036  10.3046  10.3046  10.3056
    21.3010  21.3010  21.3011  21.3014  23.0204  23.0211  23.0211  23.0217
    24.7322  24.7335  24.7344  24.7344  27.8791  27.8811  27.8811  27.8811
    33.1091  33.1107  33.1107  33.1112  34.7131  34.7135  34.7135  34.7140
    37.9131  37.9147  37.9163  37.9163  44.1421  44.1423  44.1427  44.1427

     occupation numbers 
     1.0000   1.0000   1.0000   1.0000   1.0000   1.0000   1.0000   1.0000
     1.0000   1.0000   1.0000   1.0000   1.0000   1.0000   1.0000   1.0000
     0.0000   0.0000   0.0000   0.0000   0.0000   0.0000   0.0000   0.0000
     0.0000   0.0000   0.0000   0.0000   0.0000   0.0000   0.0000   0.0000
     0.0000   0.0000   0.0000   0.0000   0.0000   0.0000   0.0000   0.0000
     0.0000   0.0000   0.0000   0.0000   0.0000   0.0000   0.0000   0.0000

          k =-0.5000-0.5000 0.2500 (  1332 PWs)   bands (ev):

    -3.2067  -3.2063  -3.2063  -3.2062   1.7608   1.7620   1.7621   1.7621
     8.7097   8.7108   8.7113   8.7113  10.3762  10.3772  10.3772  10.3782
    21.4968  21.4969  21.4969  21.4974  22.4523  22.4529  22.4529  22.4534
    23.4529  23.4540  23.4545  23.4545  28.6314  28.6333  28.6337  28.6337
    33.7481  33.7495  33.7495  33.7498  36.2856  36.2864  36.2864  36.2872
    37.7817  37.7838  37.7849  37.7849  41.4916  41.4921  41.4928  41.4928

     occupation numbers 
     1.0000   1.0000   1.0000   1.0000   1.0000   1.0000   1.0000   1.0000
     1.0000   1.0000   1.0000   1.0000   1.0000   1.0000   1.0000   1.0000
     0.0000   0.0000   0.0000   0.0000   0.0000   0.0000   0.0000   0.0000
     0.0000   0.0000   0.0000   0.0000   0.0000   0.0000   0.0000   0.0000
     0.0000   0.0000   0.0000   0.0000   0.0000   0.0000   0.0000   0.0000
     0.0000   0.0000   0.0000   0.0000   0.0000   0.0000   0.0000   0.0000

          k =-0.5000-0.5000 0.3750 (  1324 PWs)   bands (ev):

    -2.7005  -2.7003  -2.7003  -2.7001   0.5114   0.5128   0.5128   0.5128
     9.9873   9.9882   9.9889   9.9889  10.4518  10.4528  10.4528  10.4538
    21.7017  21.7020  21.7020  21.7024  21.9474  21.9479  21.9479  21.9482
    22.4634  22.4639  22.4643  22.4643  28.9159  28.9178  28.9180  28.9180
    34.6377  34.6392  34.6392  34.6392  37.5599  37.5625  37.5630  37.5630
    38.1903  38.1915  38.1915  38.1925  39.7868  39.7877  39.7887  39.7887

     occupation numbers 
     1.0000   1.0000   1.0000   1.0000   1.0000   1.0000   1.0000   1.0000
     1.0000   1.0000   1.0000   1.0000   1.0000   1.0000   1.0000   1.0000
     0.0000   0.0000   0.0000   0.0000   0.0000   0.0000   0.0000   0.0000
     0.0000   0.0000   0.0000   0.0000   0.0000   0.0000   0.0000   0.0000
     0.0000   0.0000   0.0000   0.0000   0.0000   0.0000   0.0000   0.0000
     0.0000   0.0000   0.0000   0.0000   0.0000   0.0000   0.0000   0.0000

          k =-0.5000-0.5000-0.5000 (  1328 PWs)   bands (ev):

    -2.3835  -2.3835  -2.3835  -2.3835  -0.0573  -0.0558  -0.0558  -0.0558
    10.4838  10.4838  10.4845  10.4845  10.4845  10.4858  10.4858  10.4858
    21.7524  21.7524  21.7527  21.7527  21.7527  21.7530  21.7530  21.7530
    22.1186  22.1190  22.1190  22.1190  28.9526  28.9546  28.9546  28.9546
    35.1215  35.1231  35.1231  35.1231  37.3911  37.3941  37.3941  37.3941
    39.2168  39.2168  39.2178  39.2178  39.2178  39.2195  39.2195  39.2195

     occupation numbers 
     1.0000   1.0000   1.0000   1.0000   1.0000   1.0000   1.0000   1.0000
     1.0000   1.0000   1.0000   1.0000   1.0000   1.0000   1.0000   1.0000
     0.0000   0.0000   0.0000   0.0000   0.0000   0.0000   0.0000   0.0000
     0.0000   0.0000   0.0000   0.0000   0.0000   0.0000   0.0000   0.0000
     0.0000   0.0000   0.0000   0.0000   0.0000   0.0000   0.0000   0.0000
     0.0000   0.0000   0.0000   0.0000   0.0000   0.0000   0.0000   0.0000

     the Fermi energy is    15.9863 ev
     (compare with:    15.8341 eV, computed in scf)

     Writing all to output data dir ./C.save/
 
     init_run     :      0.03s CPU      0.04s WALL (       1 calls)
     electrons    :     15.40s CPU     16.93s WALL (       1 calls)

     Called by init_run:
     wfcinit      :      0.00s CPU      0.00s WALL (       1 calls)
     wfcinit:atom :      0.00s CPU      0.00s WALL (      65 calls)
     wfcinit:wfcr :      0.26s CPU      0.27s WALL (      65 calls)
     potinit      :      0.00s CPU      0.00s WALL (       1 calls)
     hinit0       :      0.02s CPU      0.03s WALL (       1 calls)

     Called by electrons:
     c_bands      :     15.37s CPU     16.90s WALL (       1 calls)
     v_of_rho     :      0.00s CPU      0.00s WALL (       1 calls)
     v_h          :      0.00s CPU      0.00s WALL (       1 calls)
     v_xc         :      0.00s CPU      0.00s WALL (       1 calls)
     newd         :      0.00s CPU      0.00s WALL (       1 calls)

     Called by c_bands:
     init_us_2    :      0.00s CPU      0.00s WALL (      65 calls)
     init_us_2:cp :      0.00s CPU      0.00s WALL (      65 calls)
     ccgdiagg     :     14.05s CPU     15.52s WALL (     207 calls)
     wfcrot       :      0.78s CPU      0.84s WALL (     207 calls)

     Called by sum_band:

     Called by *cgdiagg:
     h_psi        :      8.73s CPU      9.62s WALL (  100852 calls)
     s_psi        :      1.49s CPU      1.65s WALL (  201497 calls)

     Called by h_psi:
     h_psi:calbec :      1.09s CPU      1.20s WALL (  100852 calls)
     vloc_psi     :      6.40s CPU      7.06s WALL (  100852 calls)
     add_vuspsi   :      0.77s CPU      0.85s WALL (  100852 calls)
     hs_1psi      :      9.35s CPU     10.32s WALL (  100645 calls)
     s_1psi       :      1.97s CPU      2.17s WALL (  100645 calls)

     General routines
     calbec       :      1.78s CPU      1.98s WALL (  201497 calls)
     fft          :      0.00s CPU      0.01s WALL (      12 calls)
     fftw         :      5.63s CPU      6.20s WALL (  221162 calls)
     davcio       :      0.01s CPU      0.01s WALL (     130 calls)
 
     Parallel routines
 
     PWSCF        :     16.98s CPU     18.68s WALL

 
   This run was terminated on:  14:52:54  22Nov2024            

=------------------------------------------------------------------------------=
   JOB DONE.
=------------------------------------------------------------------------------=
