
     Program BANDS v.7.2 starts on 22Nov2024 at 14:57:40 

     This program is part of the open-source Quantum ESPRESSO suite
     for quantum simulation of materials; please cite
         "P. Giannozzi et al., J. Phys.:Condens. Matter 21 395502 (2009);
         "P. Giannozzi et al., J. Phys.:Condens. Matter 29 465901 (2017);
         "P. Giannozzi et al., J. Chem. Phys. 152 154105 (2020);
          URL http://www.quantum-espresso.org", 
     in publications or presentations arising from this work. More details at
     http://www.quantum-espresso.org/quote

     Parallel version (MPI), running on    32 processors

     MPI processes distributed on     1 nodes
     R & G space division:  proc/nbgrp/npool/nimage =      32
     485969 MiB available memory on the printing compute node when the environment starts
 

     Reading xml data from directory:

     ./C.save/

     IMPORTANT: XC functional enforced from input :
     Exchange-correlation= PBE
                           (   1   4   3   4   0   0   0)
     Any further DFT definition will be discarded
     Please, verify this is what you really want

 
     Parallelization info
     --------------------
     sticks:   dense  smooth     PW     G-vecs:    dense   smooth      PW
     Min          45      22      6                 1303      460      72
     Max          46      23      7                 1308      463      75
     Sum        1457     725    221                41755    14771    2373
 
     Using Slab Decomposition
 

     Check: negative core charge=   -0.000007
     Reading collected, re-writing distributed wavefunctions
     high-symmetry point:  0.0000 0.5000 0.0000   x coordinate   0.0000
     high-symmetry point:  0.0000 0.0000 0.0000   x coordinate   0.5000
     high-symmetry point: -0.5000 0.0000-0.5000   x coordinate   1.2071
     high-symmetry point: -0.3750 0.2500-0.3750   x coordinate   1.5133
     high-symmetry point:  0.0000 0.0000 0.0000   x coordinate   2.0996

     Plottable bands (eV) written to file C_bands.dat.gnu
     Bands written to file C_bands.dat

 **************************************************************************

                    xk=(   0.00000,   0.50000,   0.00000  )

     point group D_2d (-42m)
     there are  5 classes
     the character table:

       E     2S4   C2    2C2'  2s_d 
A_1    1.00  1.00  1.00  1.00  1.00
A_2    1.00  1.00  1.00 -1.00 -1.00
B_1    1.00 -1.00  1.00  1.00 -1.00
B_2    1.00 -1.00  1.00 -1.00  1.00
E      2.00  0.00 -2.00  0.00  0.00

     the symmetry operations in each class and the name of the first element:

     E        1
                                                                 
     2S4      7    8
                                                                 
     C2       3
                                                                 
     2C2'     2    4
                                                                 
     2s_d     5    6
                                                                 

     Band symmetry, D_2d (-42m) point group:

     e(  1 -  2) =     -5.86483  eV     2   --> A_1  X_1  W_1  
     e(  1 -  2) =     -5.86483  eV     2   --> B_2  X_3  W_2  
     e(  3 -  6) =      1.33113  eV     4   --> B_1  X_2  W_1' 
     e(  3 -  6) =      1.33113  eV     4   --> B_2  X_3  W_2  
     e(  3 -  6) =      1.33113  eV     4   --> E    X_5  W_3  
     e(  7 - 10) =      4.98225  eV     4   --> A_1  X_1  W_1  
     e(  7 - 10) =      4.98225  eV     4   --> A_2  X_4  W_2' 
     e(  7 - 10) =      4.98225  eV     4   --> E    X_5  W_3  
     e( 11 - 12) =      8.77114  eV     2   --> A_1  X_1  W_1  
     e( 11 - 12) =      8.77114  eV     2   --> B_2  X_3  W_2  
     e( 13 - 16) =      9.16760  eV     4   -->   2 E    X_5  W_3  
     e( 17 - 18) =     17.74082  eV     2   --> A_1  X_1  W_1  
     e( 17 - 18) =     17.74082  eV     2   --> B_2  X_3  W_2  
     e( 19 - 20) =     23.54232  eV     2   --> A_1  X_1  W_1  
     e( 19 - 20) =     23.54232  eV     2   --> B_2  X_3  W_2  
     e( 21 - 24) =     23.91305  eV     4   --> A_1  X_1  W_1  
     e( 21 - 24) =     23.91305  eV     4   --> A_2  X_4  W_2' 
     e( 21 - 24) =     23.91305  eV     4   --> E    X_5  W_3  
     e( 25 - 28) =     24.84668  eV     4   -->   2 E    X_5  W_3  
     e( 29 - 32) =     25.57172  eV     4   --> B_1  X_2  W_1' 
     e( 29 - 32) =     25.57172  eV     4   --> B_2  X_3  W_2  
     e( 29 - 32) =     25.57172  eV     4   --> E    X_5  W_3  
     e( 33 - 34) =     33.37274  eV     2   --> A_1  X_1  W_1  
     e( 33 - 34) =     33.37274  eV     2   --> B_2  X_3  W_2  
     e( 35 - 38) =     34.55840  eV     4   --> A_1  X_1  W_1  
     e( 35 - 38) =     34.55840  eV     4   --> A_2  X_4  W_2' 
     e( 35 - 38) =     34.55840  eV     4   --> E    X_5  W_3  
     e( 39 - 40) =     35.41768  eV     2   --> A_1  X_1  W_1  
     e( 39 - 40) =     35.41768  eV     2   --> B_2  X_3  W_2  
     e( 41 - 42) =     42.83099  eV     2   --> A_2  X_4  W_2' 
     e( 41 - 42) =     42.83099  eV     2   --> B_1  X_2  W_1' 
     e( 43 - 46) =     43.69494  eV     4   --> B_1  X_2  W_1' 
     e( 43 - 46) =     43.69494  eV     4   --> B_2  X_3  W_2  
     e( 43 - 46) =     43.69494  eV     4   --> E    X_5  W_3  
     e( 47 - 48) =     45.89724  eV     2   -->   ?

 **************************************************************************

 **************************************************************************

                    xk=(   0.00000,   0.47500,   0.00000  )

     point group C_2v (mm2) 
     there are  4 classes
     the character table:

       E     C2    s_v   s_v' 
A_1    1.00  1.00  1.00  1.00
A_2    1.00  1.00 -1.00 -1.00
B_1    1.00 -1.00  1.00 -1.00
B_2    1.00 -1.00 -1.00  1.00

     the symmetry operations in each class and the name of the first element:

     E        1
                                                                 
     C2       2
                                                                 
     s_v      4
                                                                 
     s_v'     3
                                                                 

     Band symmetry, C_2v (mm2)  point group:

     e(  1 -  1) =     -6.08449  eV     1   --> A_1  D_1  S_1  
     e(  2 -  2) =     -5.63451  eV     1   --> A_1  D_1  S_1  
     e(  3 -  6) =      1.32442  eV     4   --> A_1  D_1  S_1  
     e(  3 -  6) =      1.32442  eV     4   --> A_2  D_2  S_2  
     e(  3 -  6) =      1.32442  eV     4   --> B_1  D_3  S_3  
     e(  3 -  6) =      1.32442  eV     4   --> B_2  D_4  S_4  
     e(  7 - 10) =      4.99522  eV     4   --> A_1  D_1  S_1  
     e(  7 - 10) =      4.99522  eV     4   --> A_2  D_2  S_2  
     e(  7 - 10) =      4.99522  eV     4   --> B_1  D_3  S_3  
     e(  7 - 10) =      4.99522  eV     4   --> B_2  D_4  S_4  
     e( 11 - 11) =      8.39174  eV     1   --> A_1  D_1  S_1  
     e( 12 - 13) =      8.96346  eV     2   --> B_1  D_3  S_3  
     e( 12 - 13) =      8.96346  eV     2   --> B_2  D_4  S_4  
     e( 14 - 14) =      9.14197  eV     1   --> A_1  D_1  S_1  
     e( 15 - 16) =      9.38007  eV     2   --> B_1  D_3  S_3  
     e( 15 - 16) =      9.38007  eV     2   --> B_2  D_4  S_4  
     e( 17 - 17) =     17.68123  eV     1   --> A_1  D_1  S_1  
     e( 18 - 18) =     17.80499  eV     1   --> A_1  D_1  S_1  
     e( 19 - 19) =     23.14125  eV     1   --> A_1  D_1  S_1  
     e( 20 - 23) =     23.78530  eV     4   --> A_1  D_1  S_1  
     e( 20 - 23) =     23.78530  eV     4   --> A_2  D_2  S_2  
     e( 20 - 23) =     23.78530  eV     4   --> B_1  D_3  S_3  
     e( 20 - 23) =     23.78530  eV     4   --> B_2  D_4  S_4  
     e( 24 - 24) =     23.94516  eV     1   --> A_1  D_1  S_1  
     e( 25 - 26) =     24.46350  eV     2   --> B_1  D_3  S_3  
     e( 25 - 26) =     24.46350  eV     2   --> B_2  D_4  S_4  
     e( 27 - 28) =     25.22754  eV     2   --> B_1  D_3  S_3  
     e( 27 - 28) =     25.22754  eV     2   --> B_2  D_4  S_4  
     e( 29 - 32) =     25.69510  eV     4   --> A_1  D_1  S_1  
     e( 29 - 32) =     25.69510  eV     4   --> A_2  D_2  S_2  
     e( 29 - 32) =     25.69510  eV     4   --> B_1  D_3  S_3  
     e( 29 - 32) =     25.69510  eV     4   --> B_2  D_4  S_4  
     e( 33 - 33) =     33.23747  eV     1   --> A_1  D_1  S_1  
     e( 34 - 34) =     33.52520  eV     1   --> A_1  D_1  S_1  
     e( 35 - 38) =     34.56644  eV     4   --> A_1  D_1  S_1  
     e( 35 - 38) =     34.56644  eV     4   --> A_2  D_2  S_2  
     e( 35 - 38) =     34.56644  eV     4   --> B_1  D_3  S_3  
     e( 35 - 38) =     34.56644  eV     4   --> B_2  D_4  S_4  
     e( 39 - 39) =     35.22848  eV     1   --> A_1  D_1  S_1  
     e( 40 - 40) =     35.59929  eV     1   --> A_1  D_1  S_1  
     e( 41 - 41) =     42.54650  eV     1   --> A_2  D_2  S_2  
     e( 42 - 42) =     43.13005  eV     1   --> A_2  D_2  S_2  
     e( 43 - 46) =     43.70049  eV     4   --> A_1  D_1  S_1  
     e( 43 - 46) =     43.70049  eV     4   --> A_2  D_2  S_2  
     e( 43 - 46) =     43.70049  eV     4   --> B_1  D_3  S_3  
     e( 43 - 46) =     43.70049  eV     4   --> B_2  D_4  S_4  
     e( 47 - 48) =     45.45634  eV     2   --> B_1  D_3  S_3  
     e( 47 - 48) =     45.45634  eV     2   --> B_2  D_4  S_4  

 **************************************************************************

 **************************************************************************

                    xk=(   0.00000,   0.45000,   0.00000  )

     Band symmetry, C_2v (mm2)  point group:

     e(  1 -  1) =     -6.29339  eV     1   --> A_1  D_1  S_1  
     e(  2 -  2) =     -5.39365  eV     1   --> A_1  D_1  S_1  
     e(  3 -  6) =      1.30471  eV     4   --> A_1  D_1  S_1  
     e(  3 -  6) =      1.30471  eV     4   --> A_2  D_2  S_2  
     e(  3 -  6) =      1.30471  eV     4   --> B_1  D_3  S_3  
     e(  3 -  6) =      1.30471  eV     4   --> B_2  D_4  S_4  
     e(  7 - 10) =      5.03365  eV     4   --> A_1  D_1  S_1  
     e(  7 - 10) =      5.03365  eV     4   --> A_2  D_2  S_2  
     e(  7 - 10) =      5.03365  eV     4   --> B_1  D_3  S_3  
     e(  7 - 10) =      5.03365  eV     4   --> B_2  D_4  S_4  
     e( 11 - 11) =      8.00443  eV     1   --> A_1  D_1  S_1  
     e( 12 - 13) =      8.76804  eV     2   --> B_1  D_3  S_3  
     e( 12 - 13) =      8.76804  eV     2   --> B_2  D_4  S_4  
     e( 14 - 14) =      9.50325  eV     1   --> A_1  D_1  S_1  
     e( 15 - 16) =      9.60039  eV     2   --> B_1  D_3  S_3  
     e( 15 - 16) =      9.60039  eV     2   --> B_2  D_4  S_4  
     e( 17 - 17) =     17.62674  eV     1   --> A_1  D_1  S_1  
     e( 18 - 18) =     17.87304  eV     1   --> A_1  D_1  S_1  
     e( 19 - 19) =     22.74592  eV     1   --> A_1  D_1  S_1  
     e( 20 - 23) =     23.47736  eV     4   --> A_1  D_1  S_1  
     e( 20 - 23) =     23.47736  eV     4   --> A_2  D_2  S_2  
     e( 20 - 23) =     23.47736  eV     4   --> B_1  D_3  S_3  
     e( 20 - 23) =     23.47736  eV     4   --> B_2  D_4  S_4  
     e( 24 - 25) =     24.07893  eV     2   --> B_1  D_3  S_3  
     e( 24 - 25) =     24.07893  eV     2   --> B_2  D_4  S_4  
     e( 26 - 26) =     24.34466  eV     1   --> A_1  D_1  S_1  
     e( 27 - 28) =     25.60507  eV     2   --> B_1  D_3  S_3  
     e( 27 - 28) =     25.60507  eV     2   --> B_2  D_4  S_4  
     e( 29 - 32) =     25.98979  eV     4   --> A_1  D_1  S_1  
     e( 29 - 32) =     25.98979  eV     4   --> A_2  D_2  S_2  
     e( 29 - 32) =     25.98979  eV     4   --> B_1  D_3  S_3  
     e( 29 - 32) =     25.98979  eV     4   --> B_2  D_4  S_4  
     e( 33 - 33) =     33.12516  eV     1   --> A_1  D_1  S_1  
     e( 34 - 34) =     33.68988  eV     1   --> A_1  D_1  S_1  
     e( 35 - 38) =     34.59062  eV     4   --> A_1  D_1  S_1  
     e( 35 - 38) =     34.59062  eV     4   --> A_2  D_2  S_2  
     e( 35 - 38) =     34.59062  eV     4   --> B_1  D_3  S_3  
     e( 35 - 38) =     34.59062  eV     4   --> B_2  D_4  S_4  
     e( 39 - 39) =     35.03333  eV     1   --> A_1  D_1  S_1  
     e( 40 - 40) =     35.77163  eV     1   --> A_1  D_1  S_1  
     e( 41 - 41) =     42.27654  eV     1   --> A_2  D_2  S_2  
     e( 42 - 42) =     43.44367  eV     1   --> A_2  D_2  S_2  
     e( 43 - 46) =     43.71729  eV     4   --> A_1  D_1  S_1  
     e( 43 - 46) =     43.71729  eV     4   --> A_2  D_2  S_2  
     e( 43 - 46) =     43.71729  eV     4   --> B_1  D_3  S_3  
     e( 43 - 46) =     43.71729  eV     4   --> B_2  D_4  S_4  
     e( 47 - 48) =     45.02072  eV     2   --> B_1  D_3  S_3  
     e( 47 - 48) =     45.02072  eV     2   --> B_2  D_4  S_4  

 **************************************************************************

 **************************************************************************

                    xk=(   0.00000,   0.42500,   0.00000  )

     Band symmetry, C_2v (mm2)  point group:

     e(  1 -  1) =     -6.49145  eV     1   --> A_1  D_1  S_1  
     e(  2 -  2) =     -5.14235  eV     1   --> A_1  D_1  S_1  
     e(  3 -  6) =      1.27310  eV     4   --> A_1  D_1  S_1  
     e(  3 -  6) =      1.27310  eV     4   --> A_2  D_2  S_2  
     e(  3 -  6) =      1.27310  eV     4   --> B_1  D_3  S_3  
     e(  3 -  6) =      1.27310  eV     4   --> B_2  D_4  S_4  
     e(  7 - 10) =      5.09614  eV     4   --> A_1  D_1  S_1  
     e(  7 - 10) =      5.09614  eV     4   --> A_2  D_2  S_2  
     e(  7 - 10) =      5.09614  eV     4   --> B_1  D_3  S_3  
     e(  7 - 10) =      5.09614  eV     4   --> B_2  D_4  S_4  
     e( 11 - 11) =      7.60998  eV     1   --> A_1  D_1  S_1  
     e( 12 - 13) =      8.58168  eV     2   --> B_1  D_3  S_3  
     e( 12 - 13) =      8.58168  eV     2   --> B_2  D_4  S_4  
     e( 14 - 15) =      9.82807  eV     2   --> B_1  D_3  S_3  
     e( 14 - 15) =      9.82807  eV     2   --> B_2  D_4  S_4  
     e( 16 - 16) =      9.85452  eV     1   --> A_1  D_1  S_1  
     e( 17 - 17) =     17.57794  eV     1   --> A_1  D_1  S_1  
     e( 18 - 18) =     17.94433  eV     1   --> A_1  D_1  S_1  
     e( 19 - 19) =     22.35944  eV     1   --> A_1  D_1  S_1  
     e( 20 - 23) =     23.08854  eV     4   --> A_1  D_1  S_1  
     e( 20 - 23) =     23.08854  eV     4   --> A_2  D_2  S_2  
     e( 20 - 23) =     23.08854  eV     4   --> B_1  D_3  S_3  
     e( 20 - 23) =     23.08854  eV     4   --> B_2  D_4  S_4  
     e( 24 - 25) =     23.69396  eV     2   --> B_1  D_3  S_3  
     e( 24 - 25) =     23.69396  eV     2   --> B_2  D_4  S_4  
     e( 26 - 26) =     24.73460  eV     1   --> A_1  D_1  S_1  
     e( 27 - 28) =     25.97823  eV     2   --> B_1  D_3  S_3  
     e( 27 - 28) =     25.97823  eV     2   --> B_2  D_4  S_4  
     e( 29 - 32) =     26.35599  eV     4   --> A_1  D_1  S_1  
     e( 29 - 32) =     26.35599  eV     4   --> A_2  D_2  S_2  
     e( 29 - 32) =     26.35599  eV     4   --> B_1  D_3  S_3  
     e( 29 - 32) =     26.35599  eV     4   --> B_2  D_4  S_4  
     e( 33 - 33) =     33.04315  eV     1   --> A_1  D_1  S_1  
     e( 34 - 34) =     33.86289  eV     1   --> A_1  D_1  S_1  
     e( 35 - 38) =     34.63111  eV     4   --> A_1  D_1  S_1  
     e( 35 - 38) =     34.63111  eV     4   --> A_2  D_2  S_2  
     e( 35 - 38) =     34.63111  eV     4   --> B_1  D_3  S_3  
     e( 35 - 38) =     34.63111  eV     4   --> B_2  D_4  S_4  
     e( 39 - 39) =     34.83408  eV     1   --> A_1  D_1  S_1  
     e( 40 - 40) =     35.93324  eV     1   --> A_1  D_1  S_1  
     e( 41 - 41) =     42.02121  eV     1   --> A_2  D_2  S_2  
     e( 42 - 45) =     43.74545  eV     4   --> A_1  D_1  S_1  
     e( 42 - 45) =     43.74545  eV     4   --> A_2  D_2  S_2  
     e( 42 - 45) =     43.74545  eV     4   --> B_1  D_3  S_3  
     e( 42 - 45) =     43.74545  eV     4   --> B_2  D_4  S_4  
     e( 46 - 46) =     43.77187  eV     1   --> A_2  D_2  S_2  
     e( 47 - 48) =     44.59617  eV     2   --> B_1  D_3  S_3  
     e( 47 - 48) =     44.59617  eV     2   --> B_2  D_4  S_4  

 **************************************************************************

 **************************************************************************

                    xk=(   0.00000,   0.40000,   0.00000  )

     Band symmetry, C_2v (mm2)  point group:

     e(  1 -  1) =     -6.67855  eV     1   --> A_1  D_1  S_1  
     e(  2 -  2) =     -4.88075  eV     1   --> A_1  D_1  S_1  
     e(  3 -  6) =      1.23128  eV     4   --> A_1  D_1  S_1  
     e(  3 -  6) =      1.23128  eV     4   --> A_2  D_2  S_2  
     e(  3 -  6) =      1.23128  eV     4   --> B_1  D_3  S_3  
     e(  3 -  6) =      1.23128  eV     4   --> B_2  D_4  S_4  
     e(  7 - 10) =      5.18058  eV     4   --> A_1  D_1  S_1  
     e(  7 - 10) =      5.18058  eV     4   --> A_2  D_2  S_2  
     e(  7 - 10) =      5.18058  eV     4   --> B_1  D_3  S_3  
     e(  7 - 10) =      5.18058  eV     4   --> B_2  D_4  S_4  
     e( 11 - 11) =      7.20915  eV     1   --> A_1  D_1  S_1  
     e( 12 - 13) =      8.40469  eV     2   --> B_1  D_3  S_3  
     e( 12 - 13) =      8.40469  eV     2   --> B_2  D_4  S_4  
     e( 14 - 15) =     10.06247  eV     2   --> B_1  D_3  S_3  
     e( 14 - 15) =     10.06247  eV     2   --> B_2  D_4  S_4  
     e( 16 - 16) =     10.19483  eV     1   --> A_1  D_1  S_1  
     e( 17 - 17) =     17.53536  eV     1   --> A_1  D_1  S_1  
     e( 18 - 18) =     18.01818  eV     1   --> A_1  D_1  S_1  
     e( 19 - 19) =     21.98419  eV     1   --> A_1  D_1  S_1  
     e( 20 - 23) =     22.66726  eV     4   --> A_1  D_1  S_1  
     e( 20 - 23) =     22.66726  eV     4   --> A_2  D_2  S_2  
     e( 20 - 23) =     22.66726  eV     4   --> B_1  D_3  S_3  
     e( 20 - 23) =     22.66726  eV     4   --> B_2  D_4  S_4  
     e( 24 - 25) =     23.30957  eV     2   --> B_1  D_3  S_3  
     e( 24 - 25) =     23.30957  eV     2   --> B_2  D_4  S_4  
     e( 26 - 26) =     25.10747  eV     1   --> A_1  D_1  S_1  
     e( 27 - 28) =     26.34590  eV     2   --> B_1  D_3  S_3  
     e( 27 - 28) =     26.34590  eV     2   --> B_2  D_4  S_4  
     e( 29 - 32) =     26.74456  eV     4   --> A_1  D_1  S_1  
     e( 29 - 32) =     26.74456  eV     4   --> A_2  D_2  S_2  
     e( 29 - 32) =     26.74456  eV     4   --> B_1  D_3  S_3  
     e( 29 - 32) =     26.74456  eV     4   --> B_2  D_4  S_4  
     e( 33 - 33) =     32.99985  eV     1   --> A_1  D_1  S_1  
     e( 34 - 34) =     34.04109  eV     1   --> A_1  D_1  S_1  
     e( 35 - 35) =     34.63257  eV     1   --> A_1  D_1  S_1  
     e( 36 - 39) =     34.68800  eV     4   --> A_1  D_1  S_1  
     e( 36 - 39) =     34.68800  eV     4   --> A_2  D_2  S_2  
     e( 36 - 39) =     34.68800  eV     4   --> B_1  D_3  S_3  
     e( 36 - 39) =     34.68800  eV     4   --> B_2  D_4  S_4  
     e( 40 - 40) =     36.08276  eV     1   --> A_1  D_1  S_1  
     e( 41 - 41) =     41.78045  eV     1   --> A_2  D_2  S_2  
     e( 42 - 45) =     43.78539  eV     4   --> A_1  D_1  S_1  
     e( 42 - 45) =     43.78539  eV     4   --> A_2  D_2  S_2  
     e( 42 - 45) =     43.78539  eV     4   --> B_1  D_3  S_3  
     e( 42 - 45) =     43.78539  eV     4   --> B_2  D_4  S_4  
     e( 46 - 46) =     44.11462  eV     1   --> A_2  D_2  S_2  
     e( 47 - 48) =     44.18673  eV     2   --> B_1  D_3  S_3  
     e( 47 - 48) =     44.18673  eV     2   --> B_2  D_4  S_4  

 **************************************************************************

 **************************************************************************

                    xk=(   0.00000,   0.37500,   0.00000  )

     Band symmetry, C_2v (mm2)  point group:

     e(  1 -  1) =     -6.85470  eV     1   --> A_1  D_1  S_1  
     e(  2 -  2) =     -4.60898  eV     1   --> A_1  D_1  S_1  
     e(  3 -  6) =      1.18127  eV     4   --> A_1  D_1  S_1  
     e(  3 -  6) =      1.18127  eV     4   --> A_2  D_2  S_2  
     e(  3 -  6) =      1.18127  eV     4   --> B_1  D_3  S_3  
     e(  3 -  6) =      1.18127  eV     4   --> B_2  D_4  S_4  
     e(  7 - 10) =      5.28431  eV     4   --> A_1  D_1  S_1  
     e(  7 - 10) =      5.28431  eV     4   --> A_2  D_2  S_2  
     e(  7 - 10) =      5.28431  eV     4   --> B_1  D_3  S_3  
     e(  7 - 10) =      5.28431  eV     4   --> B_2  D_4  S_4  
     e( 11 - 11) =      6.80268  eV     1   --> A_1  D_1  S_1  
     e( 12 - 13) =      8.23733  eV     2   --> B_1  D_3  S_3  
     e( 12 - 13) =      8.23733  eV     2   --> B_2  D_4  S_4  
     e( 14 - 15) =     10.30287  eV     2   --> B_1  D_3  S_3  
     e( 14 - 15) =     10.30287  eV     2   --> B_2  D_4  S_4  
     e( 16 - 16) =     10.52332  eV     1   --> A_1  D_1  S_1  
     e( 17 - 17) =     17.49953  eV     1   --> A_1  D_1  S_1  
     e( 18 - 18) =     18.09378  eV     1   --> A_1  D_1  S_1  
     e( 19 - 19) =     21.62193  eV     1   --> A_1  D_1  S_1  
     e( 20 - 23) =     22.23467  eV     4   --> A_1  D_1  S_1  
     e( 20 - 23) =     22.23467  eV     4   --> A_2  D_2  S_2  
     e( 20 - 23) =     22.23467  eV     4   --> B_1  D_3  S_3  
     e( 20 - 23) =     22.23467  eV     4   --> B_2  D_4  S_4  
     e( 24 - 25) =     22.92679  eV     2   --> B_1  D_3  S_3  
     e( 24 - 25) =     22.92679  eV     2   --> B_2  D_4  S_4  
     e( 26 - 26) =     25.45478  eV     1   --> A_1  D_1  S_1  
     e( 27 - 28) =     26.70687  eV     2   --> B_1  D_3  S_3  
     e( 27 - 28) =     26.70687  eV     2   --> B_2  D_4  S_4  
     e( 29 - 32) =     27.13352  eV     4   --> A_1  D_1  S_1  
     e( 29 - 32) =     27.13352  eV     4   --> A_2  D_2  S_2  
     e( 29 - 32) =     27.13352  eV     4   --> B_1  D_3  S_3  
     e( 29 - 32) =     27.13352  eV     4   --> B_2  D_4  S_4  
     e( 33 - 33) =     33.00468  eV     1   --> A_1  D_1  S_1  
     e( 34 - 34) =     34.22195  eV     1   --> A_1  D_1  S_1  
     e( 35 - 35) =     34.43065  eV     1   --> A_1  D_1  S_1  
     e( 36 - 39) =     34.76144  eV     4   --> A_1  D_1  S_1  
     e( 36 - 39) =     34.76144  eV     4   --> A_2  D_2  S_2  
     e( 36 - 39) =     34.76144  eV     4   --> B_1  D_3  S_3  
     e( 36 - 39) =     34.76144  eV     4   --> B_2  D_4  S_4  
     e( 40 - 40) =     36.21902  eV     1   --> A_1  D_1  S_1  
     e( 41 - 41) =     41.55428  eV     1   --> A_2  D_2  S_2  
     e( 42 - 43) =     43.79529  eV     2   --> B_1  D_3  S_3  
     e( 42 - 43) =     43.79529  eV     2   --> B_2  D_4  S_4  
     e( 44 - 47) =     43.83757  eV     4   --> A_1  D_1  S_1  
     e( 44 - 47) =     43.83757  eV     4   --> A_2  D_2  S_2  
     e( 44 - 47) =     43.83757  eV     4   --> B_1  D_3  S_3  
     e( 44 - 47) =     43.83757  eV     4   --> B_2  D_4  S_4  
     e( 48 - 48) =     44.47194  eV     1   --> A_2  D_2  S_2  

 **************************************************************************

 **************************************************************************

                    xk=(   0.00000,   0.35000,   0.00000  )

     Band symmetry, C_2v (mm2)  point group:

     e(  1 -  1) =     -7.01975  eV     1   --> A_1  D_1  S_1  
     e(  2 -  2) =     -4.32720  eV     1   --> A_1  D_1  S_1  
     e(  3 -  6) =      1.12526  eV     4   --> A_1  D_1  S_1  
     e(  3 -  6) =      1.12526  eV     4   --> A_2  D_2  S_2  
     e(  3 -  6) =      1.12526  eV     4   --> B_1  D_3  S_3  
     e(  3 -  6) =      1.12526  eV     4   --> B_2  D_4  S_4  
     e(  7 - 10) =      5.40440  eV     4   --> A_1  D_1  S_1  
     e(  7 - 10) =      5.40440  eV     4   --> A_2  D_2  S_2  
     e(  7 - 10) =      5.40440  eV     4   --> B_1  D_3  S_3  
     e(  7 - 10) =      5.40440  eV     4   --> B_2  D_4  S_4  
     e( 11 - 11) =      6.39142  eV     1   --> A_1  D_1  S_1  
     e( 12 - 13) =      8.07987  eV     2   --> B_1  D_3  S_3  
     e( 12 - 13) =      8.07987  eV     2   --> B_2  D_4  S_4  
     e( 14 - 15) =     10.54847  eV     2   --> B_1  D_3  S_3  
     e( 14 - 15) =     10.54847  eV     2   --> B_2  D_4  S_4  
     e( 16 - 16) =     10.83914  eV     1   --> A_1  D_1  S_1  
     e( 17 - 17) =     17.47093  eV     1   --> A_1  D_1  S_1  
     e( 18 - 18) =     18.17043  eV     1   --> A_1  D_1  S_1  
     e( 19 - 19) =     21.27398  eV     1   --> A_1  D_1  S_1  
     e( 20 - 23) =     21.80152  eV     4   --> A_1  D_1  S_1  
     e( 20 - 23) =     21.80152  eV     4   --> A_2  D_2  S_2  
     e( 20 - 23) =     21.80152  eV     4   --> B_1  D_3  S_3  
     e( 20 - 23) =     21.80152  eV     4   --> B_2  D_4  S_4  
     e( 24 - 25) =     22.54679  eV     2   --> B_1  D_3  S_3  
     e( 24 - 25) =     22.54679  eV     2   --> B_2  D_4  S_4  
     e( 26 - 26) =     25.76764  eV     1   --> A_1  D_1  S_1  
     e( 27 - 28) =     27.05981  eV     2   --> B_1  D_3  S_3  
     e( 27 - 28) =     27.05981  eV     2   --> B_2  D_4  S_4  
     e( 29 - 32) =     27.51133  eV     4   --> A_1  D_1  S_1  
     e( 29 - 32) =     27.51133  eV     4   --> A_2  D_2  S_2  
     e( 29 - 32) =     27.51133  eV     4   --> B_1  D_3  S_3  
     e( 29 - 32) =     27.51133  eV     4   --> B_2  D_4  S_4  
     e( 33 - 33) =     33.06771  eV     1   --> A_1  D_1  S_1  
     e( 34 - 34) =     34.23024  eV     1   --> A_1  D_1  S_1  
     e( 35 - 35) =     34.40344  eV     1   --> A_1  D_1  S_1  
     e( 36 - 39) =     34.85135  eV     4   --> A_1  D_1  S_1  
     e( 36 - 39) =     34.85135  eV     4   --> A_2  D_2  S_2  
     e( 36 - 39) =     34.85135  eV     4   --> B_1  D_3  S_3  
     e( 36 - 39) =     34.85135  eV     4   --> B_2  D_4  S_4  
     e( 40 - 40) =     36.34104  eV     1   --> A_1  D_1  S_1  
     e( 41 - 41) =     41.34269  eV     1   --> A_2  D_2  S_2  
     e( 42 - 43) =     43.42401  eV     2   --> B_1  D_3  S_3  
     e( 42 - 43) =     43.42401  eV     2   --> B_2  D_4  S_4  
     e( 44 - 47) =     43.90274  eV     4   --> A_1  D_1  S_1  
     e( 44 - 47) =     43.90274  eV     4   --> A_2  D_2  S_2  
     e( 44 - 47) =     43.90274  eV     4   --> B_1  D_3  S_3  
     e( 44 - 47) =     43.90274  eV     4   --> B_2  D_4  S_4  
     e( 48 - 48) =     44.84396  eV     1   --> A_2  D_2  S_2  

 **************************************************************************

 **************************************************************************

                    xk=(   0.00000,   0.32500,   0.00000  )

     Band symmetry, C_2v (mm2)  point group:

     e(  1 -  1) =     -7.17365  eV     1   --> A_1  D_1  S_1  
     e(  2 -  2) =     -4.03558  eV     1   --> A_1  D_1  S_1  
     e(  3 -  6) =      1.06535  eV     4   --> A_1  D_1  S_1  
     e(  3 -  6) =      1.06535  eV     4   --> A_2  D_2  S_2  
     e(  3 -  6) =      1.06535  eV     4   --> B_1  D_3  S_3  
     e(  3 -  6) =      1.06535  eV     4   --> B_2  D_4  S_4  
     e(  7 - 10) =      5.53770  eV     4   --> A_1  D_1  S_1  
     e(  7 - 10) =      5.53770  eV     4   --> A_2  D_2  S_2  
     e(  7 - 10) =      5.53770  eV     4   --> B_1  D_3  S_3  
     e(  7 - 10) =      5.53770  eV     4   --> B_2  D_4  S_4  
     e( 11 - 11) =      5.97606  eV     1   --> A_1  D_1  S_1  
     e( 12 - 13) =      7.93248  eV     2   --> B_1  D_3  S_3  
     e( 12 - 13) =      7.93248  eV     2   --> B_2  D_4  S_4  
     e( 14 - 15) =     10.79824  eV     2   --> B_1  D_3  S_3  
     e( 14 - 15) =     10.79824  eV     2   --> B_2  D_4  S_4  
     e( 16 - 16) =     11.14130  eV     1   --> A_1  D_1  S_1  
     e( 17 - 17) =     17.45000  eV     1   --> A_1  D_1  S_1  
     e( 18 - 18) =     18.24730  eV     1   --> A_1  D_1  S_1  
     e( 19 - 19) =     20.94126  eV     1   --> A_1  D_1  S_1  
     e( 20 - 23) =     21.37437  eV     4   --> A_1  D_1  S_1  
     e( 20 - 23) =     21.37437  eV     4   --> A_2  D_2  S_2  
     e( 20 - 23) =     21.37437  eV     4   --> B_1  D_3  S_3  
     e( 20 - 23) =     21.37437  eV     4   --> B_2  D_4  S_4  
     e( 24 - 25) =     22.17080  eV     2   --> B_1  D_3  S_3  
     e( 24 - 25) =     22.17080  eV     2   --> B_2  D_4  S_4  
     e( 26 - 26) =     26.03784  eV     1   --> A_1  D_1  S_1  
     e( 27 - 28) =     27.40321  eV     2   --> B_1  D_3  S_3  
     e( 27 - 28) =     27.40321  eV     2   --> B_2  D_4  S_4  
     e( 29 - 32) =     27.87086  eV     4   --> A_1  D_1  S_1  
     e( 29 - 32) =     27.87086  eV     4   --> A_2  D_2  S_2  
     e( 29 - 32) =     27.87086  eV     4   --> B_1  D_3  S_3  
     e( 29 - 32) =     27.87086  eV     4   --> B_2  D_4  S_4  
     e( 33 - 33) =     33.19809  eV     1   --> A_1  D_1  S_1  
     e( 34 - 34) =     34.03322  eV     1   --> A_1  D_1  S_1  
     e( 35 - 35) =     34.58391  eV     1   --> A_1  D_1  S_1  
     e( 36 - 39) =     34.95728  eV     4   --> A_1  D_1  S_1  
     e( 36 - 39) =     34.95728  eV     4   --> A_2  D_2  S_2  
     e( 36 - 39) =     34.95728  eV     4   --> B_1  D_3  S_3  
     e( 36 - 39) =     34.95728  eV     4   --> B_2  D_4  S_4  
     e( 40 - 40) =     36.44801  eV     1   --> A_1  D_1  S_1  
     e( 41 - 41) =     41.14569  eV     1   --> A_2  D_2  S_2  
     e( 42 - 43) =     43.07448  eV     2   --> B_1  D_3  S_3  
     e( 42 - 43) =     43.07448  eV     2   --> B_2  D_4  S_4  
     e( 44 - 47) =     43.98153  eV     4   --> A_1  D_1  S_1  
     e( 44 - 47) =     43.98153  eV     4   --> A_2  D_2  S_2  
     e( 44 - 47) =     43.98153  eV     4   --> B_1  D_3  S_3  
     e( 44 - 47) =     43.98153  eV     4   --> B_2  D_4  S_4  
     e( 48 - 48) =     45.23070  eV     1   --> A_2  D_2  S_2  

 **************************************************************************

 **************************************************************************

                    xk=(   0.00000,   0.30000,   0.00000  )

     Band symmetry, C_2v (mm2)  point group:

     e(  1 -  1) =     -7.31637  eV     1   --> A_1  D_1  S_1  
     e(  2 -  2) =     -3.73429  eV     1   --> A_1  D_1  S_1  
     e(  3 -  6) =      1.00350  eV     4   --> A_1  D_1  S_1  
     e(  3 -  6) =      1.00350  eV     4   --> A_2  D_2  S_2  
     e(  3 -  6) =      1.00350  eV     4   --> B_1  D_3  S_3  
     e(  3 -  6) =      1.00350  eV     4   --> B_2  D_4  S_4  
     e(  7 -  7) =      5.55731  eV     1   --> A_1  D_1  S_1  
     e(  8 - 11) =      5.68103  eV     4   --> A_1  D_1  S_1  
     e(  8 - 11) =      5.68103  eV     4   --> A_2  D_2  S_2  
     e(  8 - 11) =      5.68103  eV     4   --> B_1  D_3  S_3  
     e(  8 - 11) =      5.68103  eV     4   --> B_2  D_4  S_4  
     e( 12 - 13) =      7.79535  eV     2   --> B_1  D_3  S_3  
     e( 12 - 13) =      7.79535  eV     2   --> B_2  D_4  S_4  
     e( 14 - 15) =     11.05097  eV     2   --> B_1  D_3  S_3  
     e( 14 - 15) =     11.05097  eV     2   --> B_2  D_4  S_4  
     e( 16 - 16) =     11.42879  eV     1   --> A_1  D_1  S_1  
     e( 17 - 17) =     17.43722  eV     1   --> A_1  D_1  S_1  
     e( 18 - 18) =     18.32352  eV     1   --> A_1  D_1  S_1  
     e( 19 - 19) =     20.62439  eV     1   --> A_1  D_1  S_1  
     e( 20 - 23) =     20.95798  eV     4   --> A_1  D_1  S_1  
     e( 20 - 23) =     20.95798  eV     4   --> A_2  D_2  S_2  
     e( 20 - 23) =     20.95798  eV     4   --> B_1  D_3  S_3  
     e( 20 - 23) =     20.95798  eV     4   --> B_2  D_4  S_4  
     e( 24 - 25) =     21.80028  eV     2   --> B_1  D_3  S_3  
     e( 24 - 25) =     21.80028  eV     2   --> B_2  D_4  S_4  
     e( 26 - 26) =     26.25932  eV     1   --> A_1  D_1  S_1  
     e( 27 - 28) =     27.73540  eV     2   --> B_1  D_3  S_3  
     e( 27 - 28) =     27.73540  eV     2   --> B_2  D_4  S_4  
     e( 29 - 32) =     28.20709  eV     4   --> A_1  D_1  S_1  
     e( 29 - 32) =     28.20709  eV     4   --> A_2  D_2  S_2  
     e( 29 - 32) =     28.20709  eV     4   --> B_1  D_3  S_3  
     e( 29 - 32) =     28.20709  eV     4   --> B_2  D_4  S_4  
     e( 33 - 33) =     33.40290  eV     1   --> A_1  D_1  S_1  
     e( 34 - 34) =     33.84149  eV     1   --> A_1  D_1  S_1  
     e( 35 - 35) =     34.76178  eV     1   --> A_1  D_1  S_1  
     e( 36 - 39) =     35.07824  eV     4   --> A_1  D_1  S_1  
     e( 36 - 39) =     35.07824  eV     4   --> A_2  D_2  S_2  
     e( 36 - 39) =     35.07824  eV     4   --> B_1  D_3  S_3  
     e( 36 - 39) =     35.07824  eV     4   --> B_2  D_4  S_4  
     e( 40 - 40) =     36.53934  eV     1   --> A_1  D_1  S_1  
     e( 41 - 41) =     40.96327  eV     1   --> A_2  D_2  S_2  
     e( 42 - 43) =     42.74795  eV     2   --> B_1  D_3  S_3  
     e( 42 - 43) =     42.74795  eV     2   --> B_2  D_4  S_4  
     e( 44 - 47) =     44.07468  eV     4   --> A_1  D_1  S_1  
     e( 44 - 47) =     44.07468  eV     4   --> A_2  D_2  S_2  
     e( 44 - 47) =     44.07468  eV     4   --> B_1  D_3  S_3  
     e( 44 - 47) =     44.07468  eV     4   --> B_2  D_4  S_4  
     e( 48 - 48) =     45.63167  eV     1   --> A_2  D_2  S_2  

 **************************************************************************

 **************************************************************************

                    xk=(   0.00000,   0.27500,   0.00000  )

     Band symmetry, C_2v (mm2)  point group:

     e(  1 -  1) =     -7.44783  eV     1   --> A_1  D_1  S_1  
     e(  2 -  2) =     -3.42358  eV     1   --> A_1  D_1  S_1  
     e(  3 -  6) =      0.94146  eV     4   --> A_1  D_1  S_1  
     e(  3 -  6) =      0.94146  eV     4   --> A_2  D_2  S_2  
     e(  3 -  6) =      0.94146  eV     4   --> B_1  D_3  S_3  
     e(  3 -  6) =      0.94146  eV     4   --> B_2  D_4  S_4  
     e(  7 -  7) =      5.13601  eV     1   --> A_1  D_1  S_1  
     e(  8 - 11) =      5.83116  eV     4   --> A_1  D_1  S_1  
     e(  8 - 11) =      5.83116  eV     4   --> A_2  D_2  S_2  
     e(  8 - 11) =      5.83116  eV     4   --> B_1  D_3  S_3  
     e(  8 - 11) =      5.83116  eV     4   --> B_2  D_4  S_4  
     e( 12 - 13) =      7.66866  eV     2   --> B_1  D_3  S_3  
     e( 12 - 13) =      7.66866  eV     2   --> B_2  D_4  S_4  
     e( 14 - 15) =     11.30520  eV     2   --> B_1  D_3  S_3  
     e( 14 - 15) =     11.30520  eV     2   --> B_2  D_4  S_4  
     e( 16 - 16) =     11.70048  eV     1   --> A_1  D_1  S_1  
     e( 17 - 17) =     17.43299  eV     1   --> A_1  D_1  S_1  
     e( 18 - 18) =     18.39823  eV     1   --> A_1  D_1  S_1  
     e( 19 - 19) =     20.32377  eV     1   --> A_1  D_1  S_1  
     e( 20 - 23) =     20.55631  eV     4   --> A_1  D_1  S_1  
     e( 20 - 23) =     20.55631  eV     4   --> A_2  D_2  S_2  
     e( 20 - 23) =     20.55631  eV     4   --> B_1  D_3  S_3  
     e( 20 - 23) =     20.55631  eV     4   --> B_2  D_4  S_4  
     e( 24 - 25) =     21.43690  eV     2   --> B_1  D_3  S_3  
     e( 24 - 25) =     21.43690  eV     2   --> B_2  D_4  S_4  
     e( 26 - 26) =     26.42947  eV     1   --> A_1  D_1  S_1  
     e( 27 - 28) =     28.05455  eV     2   --> B_1  D_3  S_3  
     e( 27 - 28) =     28.05455  eV     2   --> B_2  D_4  S_4  
     e( 29 - 32) =     28.51652  eV     4   --> A_1  D_1  S_1  
     e( 29 - 32) =     28.51652  eV     4   --> A_2  D_2  S_2  
     e( 29 - 32) =     28.51652  eV     4   --> B_1  D_3  S_3  
     e( 29 - 32) =     28.51652  eV     4   --> B_2  D_4  S_4  
     e( 33 - 33) =     33.65688  eV     1   --> A_1  D_1  S_1  
     e( 34 - 34) =     33.68571  eV     1   --> A_1  D_1  S_1  
     e( 35 - 35) =     34.93646  eV     1   --> A_1  D_1  S_1  
     e( 36 - 39) =     35.21245  eV     4   --> A_1  D_1  S_1  
     e( 36 - 39) =     35.21245  eV     4   --> A_2  D_2  S_2  
     e( 36 - 39) =     35.21245  eV     4   --> B_1  D_3  S_3  
     e( 36 - 39) =     35.21245  eV     4   --> B_2  D_4  S_4  
     e( 40 - 40) =     36.61464  eV     1   --> A_1  D_1  S_1  
     e( 41 - 41) =     40.79544  eV     1   --> A_2  D_2  S_2  
     e( 42 - 43) =     42.44533  eV     2   --> B_1  D_3  S_3  
     e( 42 - 43) =     42.44533  eV     2   --> B_2  D_4  S_4  
     e( 44 - 47) =     44.18270  eV     4   --> A_1  D_1  S_1  
     e( 44 - 47) =     44.18270  eV     4   --> A_2  D_2  S_2  
     e( 44 - 47) =     44.18270  eV     4   --> B_1  D_3  S_3  
     e( 44 - 47) =     44.18270  eV     4   --> B_2  D_4  S_4  
     e( 48 - 48) =     45.71720  eV     1   --> A_1  D_1  S_1  

 **************************************************************************

 **************************************************************************

                    xk=(   0.00000,   0.25000,   0.00000  )

     Band symmetry, C_2v (mm2)  point group:

     e(  1 -  1) =     -7.56801  eV     1   --> A_1  D_1  S_1  
     e(  2 -  2) =     -3.10356  eV     1   --> A_1  D_1  S_1  
     e(  3 -  6) =      0.88070  eV     4   --> A_1  D_1  S_1  
     e(  3 -  6) =      0.88070  eV     4   --> A_2  D_2  S_2  
     e(  3 -  6) =      0.88070  eV     4   --> B_1  D_3  S_3  
     e(  3 -  6) =      0.88070  eV     4   --> B_2  D_4  S_4  
     e(  7 -  7) =      4.71294  eV     1   --> A_1  D_1  S_1  
     e(  8 - 11) =      5.98481  eV     4   --> A_1  D_1  S_1  
     e(  8 - 11) =      5.98481  eV     4   --> A_2  D_2  S_2  
     e(  8 - 11) =      5.98481  eV     4   --> B_1  D_3  S_3  
     e(  8 - 11) =      5.98481  eV     4   --> B_2  D_4  S_4  
     e( 12 - 13) =      7.55254  eV     2   --> B_1  D_3  S_3  
     e( 12 - 13) =      7.55254  eV     2   --> B_2  D_4  S_4  
     e( 14 - 15) =     11.55915  eV     2   --> B_1  D_3  S_3  
     e( 14 - 15) =     11.55915  eV     2   --> B_2  D_4  S_4  
     e( 16 - 16) =     11.95518  eV     1   --> A_1  D_1  S_1  
     e( 17 - 17) =     17.43777  eV     1   --> A_1  D_1  S_1  
     e( 18 - 18) =     18.47054  eV     1   --> A_1  D_1  S_1  
     e( 19 - 19) =     20.03959  eV     1   --> A_1  D_1  S_1  
     e( 20 - 23) =     20.17280  eV     4   --> A_1  D_1  S_1  
     e( 20 - 23) =     20.17280  eV     4   --> A_2  D_2  S_2  
     e( 20 - 23) =     20.17280  eV     4   --> B_1  D_3  S_3  
     e( 20 - 23) =     20.17280  eV     4   --> B_2  D_4  S_4  
     e( 24 - 25) =     21.08262  eV     2   --> B_1  D_3  S_3  
     e( 24 - 25) =     21.08262  eV     2   --> B_2  D_4  S_4  
     e( 26 - 26) =     26.54976  eV     1   --> A_1  D_1  S_1  
     e( 27 - 28) =     28.35865  eV     2   --> B_1  D_3  S_3  
     e( 27 - 28) =     28.35865  eV     2   --> B_2  D_4  S_4  
     e( 29 - 32) =     28.79670  eV     4   --> A_1  D_1  S_1  
     e( 29 - 32) =     28.79670  eV     4   --> A_2  D_2  S_2  
     e( 29 - 32) =     28.79670  eV     4   --> B_1  D_3  S_3  
     e( 29 - 32) =     28.79670  eV     4   --> B_2  D_4  S_4  
     e( 33 - 33) =     33.48119  eV     1   --> A_1  D_1  S_1  
     e( 34 - 34) =     34.04594  eV     1   --> A_1  D_1  S_1  
     e( 35 - 35) =     35.10689  eV     1   --> A_1  D_1  S_1  
     e( 36 - 39) =     35.35727  eV     4   --> A_1  D_1  S_1  
     e( 36 - 39) =     35.35727  eV     4   --> A_2  D_2  S_2  
     e( 36 - 39) =     35.35727  eV     4   --> B_1  D_3  S_3  
     e( 36 - 39) =     35.35727  eV     4   --> B_2  D_4  S_4  
     e( 40 - 40) =     36.67373  eV     1   --> A_1  D_1  S_1  
     e( 41 - 41) =     40.64220  eV     1   --> A_2  D_2  S_2  
     e( 42 - 43) =     42.16738  eV     2   --> B_1  D_3  S_3  
     e( 42 - 43) =     42.16738  eV     2   --> B_2  D_4  S_4  
     e( 44 - 47) =     44.30565  eV     4   --> A_1  D_1  S_1  
     e( 44 - 47) =     44.30565  eV     4   --> A_2  D_2  S_2  
     e( 44 - 47) =     44.30565  eV     4   --> B_1  D_3  S_3  
     e( 44 - 47) =     44.30565  eV     4   --> B_2  D_4  S_4  
     e( 48 - 48) =     45.41176  eV     1   --> A_1  D_1  S_1  

 **************************************************************************

 **************************************************************************

                    xk=(   0.00000,   0.22500,   0.00000  )

     Band symmetry, C_2v (mm2)  point group:

     e(  1 -  1) =     -7.67680  eV     1   --> A_1  D_1  S_1  
     e(  2 -  2) =     -2.77452  eV     1   --> A_1  D_1  S_1  
     e(  3 -  6) =      0.82257  eV     4   --> A_1  D_1  S_1  
     e(  3 -  6) =      0.82257  eV     4   --> A_2  D_2  S_2  
     e(  3 -  6) =      0.82257  eV     4   --> B_1  D_3  S_3  
     e(  3 -  6) =      0.82257  eV     4   --> B_2  D_4  S_4  
     e(  7 -  7) =      4.28887  eV     1   --> A_1  D_1  S_1  
     e(  8 - 11) =      6.13875  eV     4   --> A_1  D_1  S_1  
     e(  8 - 11) =      6.13875  eV     4   --> A_2  D_2  S_2  
     e(  8 - 11) =      6.13875  eV     4   --> B_1  D_3  S_3  
     e(  8 - 11) =      6.13875  eV     4   --> B_2  D_4  S_4  
     e( 12 - 13) =      7.44712  eV     2   --> B_1  D_3  S_3  
     e( 12 - 13) =      7.44712  eV     2   --> B_2  D_4  S_4  
     e( 14 - 15) =     11.81064  eV     2   --> B_1  D_3  S_3  
     e( 14 - 15) =     11.81064  eV     2   --> B_2  D_4  S_4  
     e( 16 - 16) =     12.19162  eV     1   --> A_1  D_1  S_1  
     e( 17 - 17) =     17.45196  eV     1   --> A_1  D_1  S_1  
     e( 18 - 18) =     18.53955  eV     1   --> A_1  D_1  S_1  
     e( 19 - 19) =     19.77188  eV     1   --> A_1  D_1  S_1  
     e( 20 - 23) =     19.81092  eV     4   --> A_1  D_1  S_1  
     e( 20 - 23) =     19.81092  eV     4   --> A_2  D_2  S_2  
     e( 20 - 23) =     19.81092  eV     4   --> B_1  D_3  S_3  
     e( 20 - 23) =     19.81092  eV     4   --> B_2  D_4  S_4  
     e( 24 - 25) =     20.73991  eV     2   --> B_1  D_3  S_3  
     e( 24 - 25) =     20.73991  eV     2   --> B_2  D_4  S_4  
     e( 26 - 26) =     26.62541  eV     1   --> A_1  D_1  S_1  
     e( 27 - 28) =     28.64543  eV     2   --> B_1  D_3  S_3  
     e( 27 - 28) =     28.64543  eV     2   --> B_2  D_4  S_4  
     e( 29 - 32) =     29.04643  eV     4   --> A_1  D_1  S_1  
     e( 29 - 32) =     29.04643  eV     4   --> A_2  D_2  S_2  
     e( 29 - 32) =     29.04643  eV     4   --> B_1  D_3  S_3  
     e( 29 - 32) =     29.04643  eV     4   --> B_2  D_4  S_4  
     e( 33 - 33) =     33.31618  eV     1   --> A_1  D_1  S_1  
     e( 34 - 34) =     34.47922  eV     1   --> A_1  D_1  S_1  
     e( 35 - 35) =     35.27225  eV     1   --> A_1  D_1  S_1  
     e( 36 - 39) =     35.50929  eV     4   --> A_1  D_1  S_1  
     e( 36 - 39) =     35.50929  eV     4   --> A_2  D_2  S_2  
     e( 36 - 39) =     35.50929  eV     4   --> B_1  D_3  S_3  
     e( 36 - 39) =     35.50929  eV     4   --> B_2  D_4  S_4  
     e( 40 - 40) =     36.71661  eV     1   --> A_1  D_1  S_1  
     e( 41 - 41) =     40.50384  eV     1   --> A_2  D_2  S_2  
     e( 42 - 43) =     41.91473  eV     2   --> B_1  D_3  S_3  
     e( 42 - 43) =     41.91473  eV     2   --> B_2  D_4  S_4  
     e( 44 - 47) =     44.44363  eV     4   --> A_1  D_1  S_1  
     e( 44 - 47) =     44.44363  eV     4   --> A_2  D_2  S_2  
     e( 44 - 47) =     44.44363  eV     4   --> B_1  D_3  S_3  
     e( 44 - 47) =     44.44363  eV     4   --> B_2  D_4  S_4  
     e( 48 - 48) =     45.09752  eV     1   --> A_1  D_1  S_1  

 **************************************************************************

 **************************************************************************

                    xk=(   0.00000,   0.20000,   0.00000  )

     Band symmetry, C_2v (mm2)  point group:

     e(  1 -  1) =     -7.77432  eV     1   --> A_1  D_1  S_1  
     e(  2 -  2) =     -2.43670  eV     1   --> A_1  D_1  S_1  
     e(  3 -  6) =      0.76813  eV     4   --> A_1  D_1  S_1  
     e(  3 -  6) =      0.76813  eV     4   --> A_2  D_2  S_2  
     e(  3 -  6) =      0.76813  eV     4   --> B_1  D_3  S_3  
     e(  3 -  6) =      0.76813  eV     4   --> B_2  D_4  S_4  
     e(  7 -  7) =      3.86455  eV     1   --> A_1  D_1  S_1  
     e(  8 - 11) =      6.28961  eV     4   --> A_1  D_1  S_1  
     e(  8 - 11) =      6.28961  eV     4   --> A_2  D_2  S_2  
     e(  8 - 11) =      6.28961  eV     4   --> B_1  D_3  S_3  
     e(  8 - 11) =      6.28961  eV     4   --> B_2  D_4  S_4  
     e( 12 - 13) =      7.35252  eV     2   --> B_1  D_3  S_3  
     e( 12 - 13) =      7.35252  eV     2   --> B_2  D_4  S_4  
     e( 14 - 15) =     12.05688  eV     2   --> B_1  D_3  S_3  
     e( 14 - 15) =     12.05688  eV     2   --> B_2  D_4  S_4  
     e( 16 - 16) =     12.40843  eV     1   --> A_1  D_1  S_1  
     e( 17 - 17) =     17.47597  eV     1   --> A_1  D_1  S_1  
     e( 18 - 18) =     18.60431  eV     1   --> A_1  D_1  S_1  
     e( 19 - 22) =     19.47400  eV     4   --> A_1  D_1  S_1  
     e( 19 - 22) =     19.47400  eV     4   --> A_2  D_2  S_2  
     e( 19 - 22) =     19.47400  eV     4   --> B_1  D_3  S_3  
     e( 19 - 22) =     19.47400  eV     4   --> B_2  D_4  S_4  
     e( 23 - 23) =     19.52058  eV     1   --> A_1  D_1  S_1  
     e( 24 - 25) =     20.41146  eV     2   --> B_1  D_3  S_3  
     e( 24 - 25) =     20.41146  eV     2   --> B_2  D_4  S_4  
     e( 26 - 26) =     26.66384  eV     1   --> A_1  D_1  S_1  
     e( 27 - 28) =     28.91246  eV     2   --> B_1  D_3  S_3  
     e( 27 - 28) =     28.91246  eV     2   --> B_2  D_4  S_4  
     e( 29 - 32) =     29.26531  eV     4   --> A_1  D_1  S_1  
     e( 29 - 32) =     29.26531  eV     4   --> A_2  D_2  S_2  
     e( 29 - 32) =     29.26531  eV     4   --> B_1  D_3  S_3  
     e( 29 - 32) =     29.26531  eV     4   --> B_2  D_4  S_4  
     e( 33 - 33) =     33.16345  eV     1   --> A_1  D_1  S_1  
     e( 34 - 34) =     34.97832  eV     1   --> A_1  D_1  S_1  
     e( 35 - 35) =     35.43189  eV     1   --> A_1  D_1  S_1  
     e( 36 - 39) =     35.66422  eV     4   --> A_1  D_1  S_1  
     e( 36 - 39) =     35.66422  eV     4   --> A_2  D_2  S_2  
     e( 36 - 39) =     35.66422  eV     4   --> B_1  D_3  S_3  
     e( 36 - 39) =     35.66422  eV     4   --> B_2  D_4  S_4  
     e( 40 - 40) =     36.74343  eV     1   --> A_1  D_1  S_1  
     e( 41 - 41) =     40.37978  eV     1   --> A_2  D_2  S_2  
     e( 42 - 43) =     41.68763  eV     2   --> B_1  D_3  S_3  
     e( 42 - 43) =     41.68763  eV     2   --> B_2  D_4  S_4  
     e( 44 - 47) =     44.59558  eV     4   --> A_1  D_1  S_1  
     e( 44 - 47) =     44.59558  eV     4   --> A_2  D_2  S_2  
     e( 44 - 47) =     44.59558  eV     4   --> B_1  D_3  S_3  
     e( 44 - 47) =     44.59558  eV     4   --> B_2  D_4  S_4  
     e( 48 - 48) =     44.76469  eV     1   --> A_1  D_1  S_1  

 **************************************************************************

 **************************************************************************

                    xk=(   0.00000,   0.17500,   0.00000  )

     Band symmetry, C_2v (mm2)  point group:

     e(  1 -  1) =     -7.86041  eV     1   --> A_1  D_1  S_1  
     e(  2 -  2) =     -2.09037  eV     1   --> A_1  D_1  S_1  
     e(  3 -  6) =      0.71828  eV     4   --> A_1  D_1  S_1  
     e(  3 -  6) =      0.71828  eV     4   --> A_2  D_2  S_2  
     e(  3 -  6) =      0.71828  eV     4   --> B_1  D_3  S_3  
     e(  3 -  6) =      0.71828  eV     4   --> B_2  D_4  S_4  
     e(  7 -  7) =      3.44071  eV     1   --> A_1  D_1  S_1  
     e(  8 - 11) =      6.43402  eV     4   --> A_1  D_1  S_1  
     e(  8 - 11) =      6.43402  eV     4   --> A_2  D_2  S_2  
     e(  8 - 11) =      6.43402  eV     4   --> B_1  D_3  S_3  
     e(  8 - 11) =      6.43402  eV     4   --> B_2  D_4  S_4  
     e( 12 - 13) =      7.26884  eV     2   --> B_1  D_3  S_3  
     e( 12 - 13) =      7.26884  eV     2   --> B_2  D_4  S_4  
     e( 14 - 15) =     12.29463  eV     2   --> B_1  D_3  S_3  
     e( 14 - 15) =     12.29463  eV     2   --> B_2  D_4  S_4  
     e( 16 - 16) =     12.60425  eV     1   --> A_1  D_1  S_1  
     e( 17 - 17) =     17.51018  eV     1   --> A_1  D_1  S_1  
     e( 18 - 18) =     18.66399  eV     1   --> A_1  D_1  S_1  
     e( 19 - 22) =     19.16545  eV     4   --> A_1  D_1  S_1  
     e( 19 - 22) =     19.16545  eV     4   --> A_2  D_2  S_2  
     e( 19 - 22) =     19.16545  eV     4   --> B_1  D_3  S_3  
     e( 19 - 22) =     19.16545  eV     4   --> B_2  D_4  S_4  
     e( 23 - 23) =     19.28551  eV     1   --> A_1  D_1  S_1  
     e( 24 - 25) =     20.10087  eV     2   --> B_1  D_3  S_3  
     e( 24 - 25) =     20.10087  eV     2   --> B_2  D_4  S_4  
     e( 26 - 26) =     26.67389  eV     1   --> A_1  D_1  S_1  
     e( 27 - 28) =     29.15715  eV     2   --> B_1  D_3  S_3  
     e( 27 - 28) =     29.15715  eV     2   --> B_2  D_4  S_4  
     e( 29 - 32) =     29.45377  eV     4   --> A_1  D_1  S_1  
     e( 29 - 32) =     29.45377  eV     4   --> A_2  D_2  S_2  
     e( 29 - 32) =     29.45377  eV     4   --> B_1  D_3  S_3  
     e( 29 - 32) =     29.45377  eV     4   --> B_2  D_4  S_4  
     e( 33 - 33) =     33.02459  eV     1   --> A_1  D_1  S_1  
     e( 34 - 34) =     35.53474  eV     1   --> A_1  D_1  S_1  
     e( 35 - 35) =     35.58522  eV     1   --> A_1  D_1  S_1  
     e( 36 - 39) =     35.81719  eV     4   --> A_1  D_1  S_1  
     e( 36 - 39) =     35.81719  eV     4   --> A_2  D_2  S_2  
     e( 36 - 39) =     35.81719  eV     4   --> B_1  D_3  S_3  
     e( 36 - 39) =     35.81719  eV     4   --> B_2  D_4  S_4  
     e( 40 - 40) =     36.75450  eV     1   --> A_1  D_1  S_1  
     e( 41 - 41) =     40.27031  eV     1   --> A_2  D_2  S_2  
     e( 42 - 43) =     41.48665  eV     2   --> B_1  D_3  S_3  
     e( 42 - 43) =     41.48665  eV     2   --> B_2  D_4  S_4  
     e( 44 - 44) =     44.40176  eV     1   --> A_1  D_1  S_1  
     e( 45 - 48) =     44.75943  eV     4   --> A_1  D_1  S_1  
     e( 45 - 48) =     44.75943  eV     4   --> A_2  D_2  S_2  
     e( 45 - 48) =     44.75943  eV     4   --> B_1  D_3  S_3  
     e( 45 - 48) =     44.75943  eV     4   --> B_2  D_4  S_4  

 **************************************************************************

 **************************************************************************

                    xk=(   0.00000,   0.15000,   0.00000  )

     Band symmetry, C_2v (mm2)  point group:

     e(  1 -  1) =     -7.93507  eV     1   --> A_1  D_1  S_1  
     e(  2 -  2) =     -1.73581  eV     1   --> A_1  D_1  S_1  
     e(  3 -  6) =      0.67372  eV     4   --> A_1  D_1  S_1  
     e(  3 -  6) =      0.67372  eV     4   --> A_2  D_2  S_2  
     e(  3 -  6) =      0.67372  eV     4   --> B_1  D_3  S_3  
     e(  3 -  6) =      0.67372  eV     4   --> B_2  D_4  S_4  
     e(  7 -  7) =      3.01808  eV     1   --> A_1  D_1  S_1  
     e(  8 - 11) =      6.56855  eV     4   --> A_1  D_1  S_1  
     e(  8 - 11) =      6.56855  eV     4   --> A_2  D_2  S_2  
     e(  8 - 11) =      6.56855  eV     4   --> B_1  D_3  S_3  
     e(  8 - 11) =      6.56855  eV     4   --> B_2  D_4  S_4  
     e( 12 - 13) =      7.19615  eV     2   --> B_1  D_3  S_3  
     e( 12 - 13) =      7.19615  eV     2   --> B_2  D_4  S_4  
     e( 14 - 15) =     12.51970  eV     2   --> B_1  D_3  S_3  
     e( 14 - 15) =     12.51970  eV     2   --> B_2  D_4  S_4  
     e( 16 - 16) =     12.77766  eV     1   --> A_1  D_1  S_1  
     e( 17 - 17) =     17.55502  eV     1   --> A_1  D_1  S_1  
     e( 18 - 18) =     18.71773  eV     1   --> A_1  D_1  S_1  
     e( 19 - 22) =     18.88865  eV     4   --> A_1  D_1  S_1  
     e( 19 - 22) =     18.88865  eV     4   --> A_2  D_2  S_2  
     e( 19 - 22) =     18.88865  eV     4   --> B_1  D_3  S_3  
     e( 19 - 22) =     18.88865  eV     4   --> B_2  D_4  S_4  
     e( 23 - 23) =     19.06644  eV     1   --> A_1  D_1  S_1  
     e( 24 - 25) =     19.81239  eV     2   --> B_1  D_3  S_3  
     e( 24 - 25) =     19.81239  eV     2   --> B_2  D_4  S_4  
     e( 26 - 26) =     26.66420  eV     1   --> A_1  D_1  S_1  
     e( 27 - 28) =     29.37679  eV     2   --> B_1  D_3  S_3  
     e( 27 - 28) =     29.37679  eV     2   --> B_2  D_4  S_4  
     e( 29 - 32) =     29.61283  eV     4   --> A_1  D_1  S_1  
     e( 29 - 32) =     29.61283  eV     4   --> A_2  D_2  S_2  
     e( 29 - 32) =     29.61283  eV     4   --> B_1  D_3  S_3  
     e( 29 - 32) =     29.61283  eV     4   --> B_2  D_4  S_4  
     e( 33 - 33) =     32.90104  eV     1   --> A_1  D_1  S_1  
     e( 34 - 34) =     35.73169  eV     1   --> A_1  D_1  S_1  
     e( 35 - 38) =     35.96303  eV     4   --> A_1  D_1  S_1  
     e( 35 - 38) =     35.96303  eV     4   --> A_2  D_2  S_2  
     e( 35 - 38) =     35.96303  eV     4   --> B_1  D_3  S_3  
     e( 35 - 38) =     35.96303  eV     4   --> B_2  D_4  S_4  
     e( 39 - 39) =     36.13937  eV     1   --> A_1  D_1  S_1  
     e( 40 - 40) =     36.75025  eV     1   --> A_1  D_1  S_1  
     e( 41 - 41) =     40.17544  eV     1   --> A_2  D_2  S_2  
     e( 42 - 43) =     41.31202  eV     2   --> B_1  D_3  S_3  
     e( 42 - 43) =     41.31202  eV     2   --> B_2  D_4  S_4  
     e( 44 - 44) =     43.99638  eV     1   --> A_1  D_1  S_1  
     e( 45 - 48) =     44.93147  eV     4   --> A_1  D_1  S_1  
     e( 45 - 48) =     44.93147  eV     4   --> A_2  D_2  S_2  
     e( 45 - 48) =     44.93147  eV     4   --> B_1  D_3  S_3  
     e( 45 - 48) =     44.93147  eV     4   --> B_2  D_4  S_4  

 **************************************************************************

 **************************************************************************

                    xk=(   0.00000,   0.12500,   0.00000  )

     Band symmetry, C_2v (mm2)  point group:

     e(  1 -  1) =     -7.99829  eV     1   --> A_1  D_1  S_1  
     e(  2 -  2) =     -1.37336  eV     1   --> A_1  D_1  S_1  
     e(  3 -  6) =      0.63515  eV     4   --> A_1  D_1  S_1  
     e(  3 -  6) =      0.63515  eV     4   --> A_2  D_2  S_2  
     e(  3 -  6) =      0.63515  eV     4   --> B_1  D_3  S_3  
     e(  3 -  6) =      0.63515  eV     4   --> B_2  D_4  S_4  
     e(  7 -  7) =      2.59735  eV     1   --> A_1  D_1  S_1  
     e(  8 - 11) =      6.68980  eV     4   --> A_1  D_1  S_1  
     e(  8 - 11) =      6.68980  eV     4   --> A_2  D_2  S_2  
     e(  8 - 11) =      6.68980  eV     4   --> B_1  D_3  S_3  
     e(  8 - 11) =      6.68980  eV     4   --> B_2  D_4  S_4  
     e( 12 - 13) =      7.13453  eV     2   --> B_1  D_3  S_3  
     e( 12 - 13) =      7.13453  eV     2   --> B_2  D_4  S_4  
     e( 14 - 15) =     12.72706  eV     2   --> B_1  D_3  S_3  
     e( 14 - 15) =     12.72706  eV     2   --> B_2  D_4  S_4  
     e( 16 - 16) =     12.92729  eV     1   --> A_1  D_1  S_1  
     e( 17 - 17) =     17.61086  eV     1   --> A_1  D_1  S_1  
     e( 18 - 21) =     18.64702  eV     4   --> A_1  D_1  S_1  
     e( 18 - 21) =     18.64702  eV     4   --> A_2  D_2  S_2  
     e( 18 - 21) =     18.64702  eV     4   --> B_1  D_3  S_3  
     e( 18 - 21) =     18.64702  eV     4   --> B_2  D_4  S_4  
     e( 22 - 22) =     18.76472  eV     1   --> A_1  D_1  S_1  
     e( 23 - 23) =     18.86307  eV     1   --> A_1  D_1  S_1  
     e( 24 - 25) =     19.55124  eV     2   --> B_1  D_3  S_3  
     e( 24 - 25) =     19.55124  eV     2   --> B_2  D_4  S_4  
     e( 26 - 26) =     26.64268  eV     1   --> A_1  D_1  S_1  
     e( 27 - 28) =     29.56864  eV     2   --> B_1  D_3  S_3  
     e( 27 - 28) =     29.56864  eV     2   --> B_2  D_4  S_4  
     e( 29 - 32) =     29.74387  eV     4   --> A_1  D_1  S_1  
     e( 29 - 32) =     29.74387  eV     4   --> A_2  D_2  S_2  
     e( 29 - 32) =     29.74387  eV     4   --> B_1  D_3  S_3  
     e( 29 - 32) =     29.74387  eV     4   --> B_2  D_4  S_4  
     e( 33 - 33) =     32.79411  eV     1   --> A_1  D_1  S_1  
     e( 34 - 34) =     35.87078  eV     1   --> A_1  D_1  S_1  
     e( 35 - 38) =     36.09661  eV     4   --> A_1  D_1  S_1  
     e( 35 - 38) =     36.09661  eV     4   --> A_2  D_2  S_2  
     e( 35 - 38) =     36.09661  eV     4   --> B_1  D_3  S_3  
     e( 35 - 38) =     36.09661  eV     4   --> B_2  D_4  S_4  
     e( 39 - 39) =     36.73123  eV     1   --> A_1  D_1  S_1  
     e( 40 - 40) =     36.78314  eV     1   --> A_1  D_1  S_1  
     e( 41 - 41) =     40.09519  eV     1   --> A_2  D_2  S_2  
     e( 42 - 43) =     41.16385  eV     2   --> B_1  D_3  S_3  
     e( 42 - 43) =     41.16385  eV     2   --> B_2  D_4  S_4  
     e( 44 - 44) =     43.53782  eV     1   --> A_1  D_1  S_1  
     e( 45 - 48) =     45.10600  eV     4   --> A_1  D_1  S_1  
     e( 45 - 48) =     45.10600  eV     4   --> A_2  D_2  S_2  
     e( 45 - 48) =     45.10600  eV     4   --> B_1  D_3  S_3  
     e( 45 - 48) =     45.10600  eV     4   --> B_2  D_4  S_4  

 **************************************************************************

 **************************************************************************

                    xk=(   0.00000,   0.10000,   0.00000  )

     Band symmetry, C_2v (mm2)  point group:

     e(  1 -  1) =     -8.05004  eV     1   --> A_1  D_1  S_1  
     e(  2 -  2) =     -1.00334  eV     1   --> A_1  D_1  S_1  
     e(  3 -  6) =      0.60299  eV     4   --> A_1  D_1  S_1  
     e(  3 -  6) =      0.60299  eV     4   --> A_2  D_2  S_2  
     e(  3 -  6) =      0.60299  eV     4   --> B_1  D_3  S_3  
     e(  3 -  6) =      0.60299  eV     4   --> B_2  D_4  S_4  
     e(  7 -  7) =      2.17919  eV     1   --> A_1  D_1  S_1  
     e(  8 - 11) =      6.79450  eV     4   --> A_1  D_1  S_1  
     e(  8 - 11) =      6.79450  eV     4   --> A_2  D_2  S_2  
     e(  8 - 11) =      6.79450  eV     4   --> B_1  D_3  S_3  
     e(  8 - 11) =      6.79450  eV     4   --> B_2  D_4  S_4  
     e( 12 - 13) =      7.08403  eV     2   --> B_1  D_3  S_3  
     e( 12 - 13) =      7.08403  eV     2   --> B_2  D_4  S_4  
     e( 14 - 15) =     12.91082  eV     2   --> B_1  D_3  S_3  
     e( 14 - 15) =     12.91082  eV     2   --> B_2  D_4  S_4  
     e( 16 - 16) =     13.05179  eV     1   --> A_1  D_1  S_1  
     e( 17 - 17) =     17.67812  eV     1   --> A_1  D_1  S_1  
     e( 18 - 21) =     18.44383  eV     4   --> A_1  D_1  S_1  
     e( 18 - 21) =     18.44383  eV     4   --> A_2  D_2  S_2  
     e( 18 - 21) =     18.44383  eV     4   --> B_1  D_3  S_3  
     e( 18 - 21) =     18.44383  eV     4   --> B_2  D_4  S_4  
     e( 22 - 22) =     18.67506  eV     1   --> A_1  D_1  S_1  
     e( 23 - 23) =     18.80425  eV     1   --> A_1  D_1  S_1  
     e( 24 - 25) =     19.32328  eV     2   --> B_1  D_3  S_3  
     e( 24 - 25) =     19.32328  eV     2   --> B_2  D_4  S_4  
     e( 26 - 26) =     26.61602  eV     1   --> A_1  D_1  S_1  
     e( 27 - 28) =     29.73005  eV     2   --> B_1  D_3  S_3  
     e( 27 - 28) =     29.73005  eV     2   --> B_2  D_4  S_4  
     e( 29 - 32) =     29.84842  eV     4   --> A_1  D_1  S_1  
     e( 29 - 32) =     29.84842  eV     4   --> A_2  D_2  S_2  
     e( 29 - 32) =     29.84842  eV     4   --> B_1  D_3  S_3  
     e( 29 - 32) =     29.84842  eV     4   --> B_2  D_4  S_4  
     e( 33 - 33) =     32.70496  eV     1   --> A_1  D_1  S_1  
     e( 34 - 34) =     36.00197  eV     1   --> A_1  D_1  S_1  
     e( 35 - 38) =     36.21311  eV     4   --> A_1  D_1  S_1  
     e( 35 - 38) =     36.21311  eV     4   --> A_2  D_2  S_2  
     e( 35 - 38) =     36.21311  eV     4   --> B_1  D_3  S_3  
     e( 35 - 38) =     36.21311  eV     4   --> B_2  D_4  S_4  
     e( 39 - 39) =     36.69802  eV     1   --> A_1  D_1  S_1  
     e( 40 - 40) =     37.45672  eV     1   --> A_1  D_1  S_1  
     e( 41 - 41) =     40.02951  eV     1   --> A_2  D_2  S_2  
     e( 42 - 43) =     41.04248  eV     2   --> B_1  D_3  S_3  
     e( 42 - 43) =     41.04248  eV     2   --> B_2  D_4  S_4  
     e( 44 - 44) =     43.02034  eV     1   --> A_1  D_1  S_1  
     e( 45 - 48) =     45.27479  eV     4   --> A_1  D_1  S_1  
     e( 45 - 48) =     45.27479  eV     4   --> A_2  D_2  S_2  
     e( 45 - 48) =     45.27479  eV     4   --> B_1  D_3  S_3  
     e( 45 - 48) =     45.27479  eV     4   --> B_2  D_4  S_4  

 **************************************************************************

 **************************************************************************

                    xk=(   0.00000,   0.07500,   0.00000  )

     Band symmetry, C_2v (mm2)  point group:

     e(  1 -  1) =     -8.09027  eV     1   --> A_1  D_1  S_1  
     e(  2 -  2) =     -0.62612  eV     1   --> A_1  D_1  S_1  
     e(  3 -  6) =      0.57761  eV     4   --> A_1  D_1  S_1  
     e(  3 -  6) =      0.57761  eV     4   --> A_2  D_2  S_2  
     e(  3 -  6) =      0.57761  eV     4   --> B_1  D_3  S_3  
     e(  3 -  6) =      0.57761  eV     4   --> B_2  D_4  S_4  
     e(  7 -  7) =      1.76424  eV     1   --> A_1  D_1  S_1  
     e(  8 - 11) =      6.87958  eV     4   --> A_1  D_1  S_1  
     e(  8 - 11) =      6.87958  eV     4   --> A_2  D_2  S_2  
     e(  8 - 11) =      6.87958  eV     4   --> B_1  D_3  S_3  
     e(  8 - 11) =      6.87958  eV     4   --> B_2  D_4  S_4  
     e( 12 - 13) =      7.04471  eV     2   --> B_1  D_3  S_3  
     e( 12 - 13) =      7.04471  eV     2   --> B_2  D_4  S_4  
     e( 14 - 15) =     13.06430  eV     2   --> B_1  D_3  S_3  
     e( 14 - 15) =     13.06430  eV     2   --> B_2  D_4  S_4  
     e( 16 - 16) =     13.15002  eV     1   --> A_1  D_1  S_1  
     e( 17 - 17) =     17.75718  eV     1   --> A_1  D_1  S_1  
     e( 18 - 21) =     18.28211  eV     4   --> A_1  D_1  S_1  
     e( 18 - 21) =     18.28211  eV     4   --> A_2  D_2  S_2  
     e( 18 - 21) =     18.28211  eV     4   --> B_1  D_3  S_3  
     e( 18 - 21) =     18.28211  eV     4   --> B_2  D_4  S_4  
     e( 22 - 22) =     18.50206  eV     1   --> A_1  D_1  S_1  
     e( 23 - 23) =     18.83571  eV     1   --> A_1  D_1  S_1  
     e( 24 - 25) =     19.13535  eV     2   --> B_1  D_3  S_3  
     e( 24 - 25) =     19.13535  eV     2   --> B_2  D_4  S_4  
     e( 26 - 26) =     26.58978  eV     1   --> A_1  D_1  S_1  
     e( 27 - 28) =     29.85854  eV     2   --> B_1  D_3  S_3  
     e( 27 - 28) =     29.85854  eV     2   --> B_2  D_4  S_4  
     e( 29 - 32) =     29.92792  eV     4   --> A_1  D_1  S_1  
     e( 29 - 32) =     29.92792  eV     4   --> A_2  D_2  S_2  
     e( 29 - 32) =     29.92792  eV     4   --> B_1  D_3  S_3  
     e( 29 - 32) =     29.92792  eV     4   --> B_2  D_4  S_4  
     e( 33 - 33) =     32.63459  eV     1   --> A_1  D_1  S_1  
     e( 34 - 34) =     36.12473  eV     1   --> A_1  D_1  S_1  
     e( 35 - 38) =     36.30827  eV     4   --> A_1  D_1  S_1  
     e( 35 - 38) =     36.30827  eV     4   --> A_2  D_2  S_2  
     e( 35 - 38) =     36.30827  eV     4   --> B_1  D_3  S_3  
     e( 35 - 38) =     36.30827  eV     4   --> B_2  D_4  S_4  
     e( 39 - 39) =     36.65128  eV     1   --> A_1  D_1  S_1  
     e( 40 - 40) =     38.14989  eV     1   --> A_1  D_1  S_1  
     e( 41 - 41) =     39.97843  eV     1   --> A_2  D_2  S_2  
     e( 42 - 43) =     40.94802  eV     2   --> B_1  D_3  S_3  
     e( 42 - 43) =     40.94802  eV     2   --> B_2  D_4  S_4  
     e( 44 - 44) =     42.44669  eV     1   --> A_1  D_1  S_1  
     e( 45 - 48) =     45.42691  eV     4   --> A_1  D_1  S_1  
     e( 45 - 48) =     45.42691  eV     4   --> A_2  D_2  S_2  
     e( 45 - 48) =     45.42691  eV     4   --> B_1  D_3  S_3  
     e( 45 - 48) =     45.42691  eV     4   --> B_2  D_4  S_4  

 **************************************************************************

 **************************************************************************

                    xk=(   0.00000,   0.05000,   0.00000  )

     Band symmetry, C_2v (mm2)  point group:

     e(  2 -  2) =     -8.11905  eV     1   --> A_1  D_1  S_1  
     e(  3 -  3) =     -0.24209  eV     1   --> A_1  D_1  S_1  
     e(  4 -  7) =      0.55930  eV     4   --> A_1  D_1  S_1  
     e(  4 -  7) =      0.55930  eV     4   --> A_2  D_2  S_2  
     e(  4 -  7) =      0.55930  eV     4   --> B_1  D_3  S_3  
     e(  4 -  7) =      0.55930  eV     4   --> B_2  D_4  S_4  
     e(  8 -  8) =      1.35310  eV     1   --> A_1  D_1  S_1  
     e(  9 - 12) =      6.94246  eV     4   --> A_1  D_1  S_1  
     e(  9 - 12) =      6.94246  eV     4   --> A_2  D_2  S_2  
     e(  9 - 12) =      6.94246  eV     4   --> B_1  D_3  S_3  
     e(  9 - 12) =      6.94246  eV     4   --> B_2  D_4  S_4  
     e( 13 - 14) =      7.01659  eV     2   --> B_1  D_3  S_3  
     e( 13 - 14) =      7.01659  eV     2   --> B_2  D_4  S_4  
     e( 15 - 16) =     13.18057  eV     2   --> B_1  D_3  S_3  
     e( 15 - 16) =     13.18057  eV     2   --> B_2  D_4  S_4  
     e( 17 - 17) =     13.22094  eV     1   --> A_1  D_1  S_1  
     e( 18 - 18) =     17.84843  eV     1   --> A_1  D_1  S_1  
     e( 19 - 22) =     18.16455  eV     4   --> A_1  D_1  S_1  
     e( 19 - 22) =     18.16455  eV     4   --> A_2  D_2  S_2  
     e( 19 - 22) =     18.16455  eV     4   --> B_1  D_3  S_3  
     e( 19 - 22) =     18.16455  eV     4   --> B_2  D_4  S_4  
     e( 23 - 23) =     18.34367  eV     1   --> A_1  D_1  S_1  
     e( 24 - 24) =     18.85856  eV     1   --> A_1  D_1  S_1  
     e( 25 - 26) =     18.99441  eV     2   --> B_1  D_3  S_3  
     e( 25 - 26) =     18.99441  eV     2   --> B_2  D_4  S_4  
     e( 27 - 27) =     26.56803  eV     1   --> A_1  D_1  S_1  
     e( 28 - 29) =     29.95196  eV     2   --> B_1  D_3  S_3  
     e( 28 - 29) =     29.95196  eV     2   --> B_2  D_4  S_4  
     e( 30 - 33) =     29.98373  eV     4   --> A_1  D_1  S_1  
     e( 30 - 33) =     29.98373  eV     4   --> A_2  D_2  S_2  
     e( 30 - 33) =     29.98373  eV     4   --> B_1  D_3  S_3  
     e( 30 - 33) =     29.98373  eV     4   --> B_2  D_4  S_4  
     e( 34 - 34) =     32.58373  eV     1   --> A_1  D_1  S_1  
     e( 35 - 35) =     36.23844  eV     1   --> A_1  D_1  S_1  
     e( 36 - 39) =     36.37878  eV     4   --> A_1  D_1  S_1  
     e( 36 - 39) =     36.37878  eV     4   --> A_2  D_2  S_2  
     e( 36 - 39) =     36.37878  eV     4   --> B_1  D_3  S_3  
     e( 36 - 39) =     36.37878  eV     4   --> B_2  D_4  S_4  
     e( 40 - 40) =     36.59168  eV     1   --> A_1  D_1  S_1  
     e( 41 - 41) =     38.84744  eV     1   --> A_1  D_1  S_1  
     e( 42 - 42) =     39.94193  eV     1   --> A_2  D_2  S_2  
     e( 43 - 44) =     40.88044  eV     2   --> B_1  D_3  S_3  
     e( 43 - 44) =     40.88044  eV     2   --> B_2  D_4  S_4  
     e( 45 - 45) =     41.83037  eV     1   --> A_1  D_1  S_1  
     e( 46 - 48) =     45.54980  eV     3   -->   ?

 **************************************************************************

 **************************************************************************

                    xk=(   0.00000,   0.02500,   0.00000  )

     Band symmetry, C_2v (mm2)  point group:

     e(  1 -  1) =     -8.13631  eV     1   --> A_1  D_1  S_1  
     e(  2 -  2) =      0.14820  eV     1   --> A_1  D_1  S_1  
     e(  3 -  6) =      0.54823  eV     4   --> A_1  D_1  S_1  
     e(  3 -  6) =      0.54823  eV     4   --> A_2  D_2  S_2  
     e(  3 -  6) =      0.54823  eV     4   --> B_1  D_3  S_3  
     e(  3 -  6) =      0.54823  eV     4   --> B_2  D_4  S_4  
     e(  7 -  7) =      0.94636  eV     1   --> A_1  D_1  S_1  
     e(  8 - 11) =      6.98105  eV     4   --> A_1  D_1  S_1  
     e(  8 - 11) =      6.98105  eV     4   --> A_2  D_2  S_2  
     e(  8 - 11) =      6.98105  eV     4   --> B_1  D_3  S_3  
     e(  8 - 11) =      6.98105  eV     4   --> B_2  D_4  S_4  
     e( 12 - 13) =      6.99971  eV     2   --> B_1  D_3  S_3  
     e( 12 - 13) =      6.99971  eV     2   --> B_2  D_4  S_4  
     e( 14 - 15) =     13.25335  eV     2   --> B_1  D_3  S_3  
     e( 14 - 15) =     13.25335  eV     2   --> B_2  D_4  S_4  
     e( 16 - 16) =     13.26381  eV     1   --> A_1  D_1  S_1  
     e( 17 - 17) =     17.95230  eV     1   --> A_1  D_1  S_1  
     e( 18 - 21) =     18.09312  eV     4   --> A_1  D_1  S_1  
     e( 18 - 21) =     18.09312  eV     4   --> A_2  D_2  S_2  
     e( 18 - 21) =     18.09312  eV     4   --> B_1  D_3  S_3  
     e( 18 - 21) =     18.09312  eV     4   --> B_2  D_4  S_4  
     e( 22 - 22) =     18.19952  eV     1   --> A_1  D_1  S_1  
     e( 23 - 23) =     18.87242  eV     1   --> A_1  D_1  S_1  
     e( 24 - 25) =     18.90681  eV     2   --> B_1  D_3  S_3  
     e( 24 - 25) =     18.90681  eV     2   --> B_2  D_4  S_4  
     e( 26 - 26) =     26.55381  eV     1   --> A_1  D_1  S_1  
     e( 27 - 28) =     30.00873  eV     2   --> B_1  D_3  S_3  
     e( 27 - 28) =     30.00873  eV     2   --> B_2  D_4  S_4  
     e( 29 - 32) =     30.01680  eV     4   --> A_1  D_1  S_1  
     e( 29 - 32) =     30.01680  eV     4   --> A_2  D_2  S_2  
     e( 29 - 32) =     30.01680  eV     4   --> B_1  D_3  S_3  
     e( 29 - 32) =     30.01680  eV     4   --> B_2  D_4  S_4  
     e( 33 - 33) =     32.55298  eV     1   --> A_1  D_1  S_1  
     e( 34 - 34) =     36.34265  eV     1   --> A_1  D_1  S_1  
     e( 35 - 38) =     36.42208  eV     4   --> A_1  D_1  S_1  
     e( 35 - 38) =     36.42208  eV     4   --> A_2  D_2  S_2  
     e( 35 - 38) =     36.42208  eV     4   --> B_1  D_3  S_3  
     e( 35 - 38) =     36.42208  eV     4   --> B_2  D_4  S_4  
     e( 39 - 39) =     36.51991  eV     1   --> A_1  D_1  S_1  
     e( 40 - 40) =     39.51270  eV     1   --> A_1  D_1  S_1  
     e( 41 - 41) =     39.92004  eV     1   --> A_2  D_2  S_2  
     e( 42 - 43) =     40.83988  eV     2   --> B_1  D_3  S_3  
     e( 42 - 43) =     40.83988  eV     2   --> B_2  D_4  S_4  
     e( 44 - 44) =     41.21144  eV     1   --> A_1  D_1  S_1  
     e( 45 - 48) =     45.63030  eV     4   --> A_1  D_1  S_1  
     e( 45 - 48) =     45.63030  eV     4   --> A_2  D_2  S_2  
     e( 45 - 48) =     45.63030  eV     4   --> B_1  D_3  S_3  
     e( 45 - 48) =     45.63030  eV     4   --> B_2  D_4  S_4  

 **************************************************************************

 **************************************************************************

                    xk=(   0.00000,   0.00000,   0.00000  )

     point group T_d (-43m) 
     there are  5 classes
     the character table:

       E     8C3   3C2   6S4   6s_d 
A_1    1.00  1.00  1.00  1.00  1.00
A_2    1.00  1.00  1.00 -1.00 -1.00
E      2.00 -1.00  2.00  0.00  0.00
T_1    3.00  0.00 -1.00  1.00 -1.00
T_2    3.00  0.00 -1.00 -1.00  1.00

     the symmetry operations in each class and the name of the first element:

     E        1
                                                                 
     8C3      5    7    8    6   12    9   10   11
                                                                 
     3C2      2    3    4
                                                                 
     6S4     15   16   20   19   23   24
                                                                 
     6s_d    13   14   17   18   21   22
                                                                 

     Band symmetry, T_d (-43m)  point group:

     e(  1 -  1) =     -8.14207  eV     1   --> A_1  G_1  P_1  
     e(  2 -  7) =      0.54452  eV     6   --> A_1  G_1  P_1  
     e(  2 -  7) =      0.54452  eV     6   --> E    G_12 P_3  
     e(  2 -  7) =      0.54452  eV     6   --> T_2  G_15 P_4  
     e(  8 - 13) =      6.99408  eV     6   --> T_1  G_25 P_5  
     e(  8 - 13) =      6.99408  eV     6   --> T_2  G_15 P_4  
     e( 14 - 16) =     13.27816  eV     3   --> T_2  G_15 P_4  
     e( 17 - 22) =     18.06920  eV     6   --> A_1  G_1  P_1  
     e( 17 - 22) =     18.06920  eV     6   --> E    G_12 P_3  
     e( 17 - 22) =     18.06920  eV     6   --> T_2  G_15 P_4  
     e( 23 - 25) =     18.87706  eV     3   --> T_2  G_15 P_4  
     e( 26 - 26) =     26.54887  eV     1   --> A_1  G_1  P_1  
     e( 27 - 32) =     30.02776  eV     6   --> T_1  G_25 P_5  
     e( 27 - 32) =     30.02776  eV     6   --> T_2  G_15 P_4  
     e( 33 - 33) =     32.54269  eV     1   --> A_1  G_1  P_1  
     e( 34 - 39) =     36.43669  eV     6   --> A_1  G_1  P_1  
     e( 34 - 39) =     36.43669  eV     6   --> E    G_12 P_3  
     e( 34 - 39) =     36.43669  eV     6   --> T_2  G_15 P_4  
     e( 40 - 41) =     39.91274  eV     2   --> E    G_12 P_3  
     e( 42 - 44) =     40.82635  eV     3   --> T_2  G_15 P_4  
     e( 45 - 48) =     45.65843  eV     4   -->   ?

 **************************************************************************

 **************************************************************************

                    xk=(  -0.01667,   0.00000,  -0.01667  )

     point group C_s (m)    
     there are  2 classes
     the character table:

       E     s    
A'     1.00  1.00
A''    1.00 -1.00

     the symmetry operations in each class and the name of the first element:

     E        1
                                                                 
     s        2
                                                                 

     Band symmetry, C_s (m)     point group:

     e(  1 -  1) =     -8.13695  eV     1   --> A'             
     e(  2 -  3) =      0.28140  eV     2   --> A'             
     e(  2 -  3) =      0.28140  eV     2   --> A''            
     e(  4 -  4) =      0.54654  eV     1   --> A'             
     e(  5 -  5) =      0.54915  eV     1   --> A'             
     e(  6 -  7) =      0.81340  eV     2   --> A'             
     e(  6 -  7) =      0.81340  eV     2   --> A''            
     e(  8 -  8) =      6.96670  eV     1   --> A'             
     e(  9 - 10) =      6.99067  eV     2   --> A'             
     e(  9 - 10) =      6.99067  eV     2   --> A''            
     e( 11 - 12) =      6.99091  eV     2   --> A'             
     e( 11 - 12) =      6.99091  eV     2   --> A''            
     e( 13 - 13) =      6.99837  eV     1   --> A''            
     e( 14 - 14) =     13.24653  eV     1   --> A'             
     e( 15 - 15) =     13.25606  eV     1   --> A'             
     e( 16 - 16) =     13.27503  eV     1   --> A''            
     e( 17 - 18) =     18.00052  eV     2   --> A'             
     e( 17 - 18) =     18.00052  eV     2   --> A''            
     e( 19 - 19) =     18.07336  eV     1   --> A'             
     e( 20 - 20) =     18.10759  eV     1   --> A'             
     e( 21 - 22) =     18.16516  eV     2   --> A'             
     e( 21 - 22) =     18.16516  eV     2   --> A''            
     e( 23 - 23) =     18.88227  eV     1   --> A''            
     e( 24 - 24) =     18.89423  eV     1   --> A'             
     e( 25 - 25) =     18.90345  eV     1   --> A'             
     e( 26 - 26) =     26.55329  eV     1   --> A'             
     e( 27 - 28) =     30.01385  eV     2   --> A'             
     e( 27 - 28) =     30.01385  eV     2   --> A''            
     e( 29 - 31) =     30.01499  eV     3   --> A'             
     e( 29 - 31) =     30.01499  eV     3   -->   2 A''            
     e( 32 - 32) =     30.02108  eV     1   --> A'             
     e( 33 - 33) =     32.55183  eV     1   --> A'             
     e( 34 - 35) =     36.36928  eV     2   --> A'             
     e( 34 - 35) =     36.36928  eV     2   --> A''            
     e( 36 - 36) =     36.40377  eV     1   --> A'             
     e( 37 - 37) =     36.44369  eV     1   --> A'             
     e( 38 - 39) =     36.48634  eV     2   --> A'             
     e( 38 - 39) =     36.48634  eV     2   --> A''            
     e( 40 - 40) =     39.62849  eV     1   --> A''            
     e( 41 - 41) =     39.80246  eV     1   --> A'             
     e( 42 - 42) =     40.83838  eV     1   --> A'             
     e( 43 - 43) =     40.92054  eV     1   --> A'             
     e( 44 - 44) =     41.13214  eV     1   --> A''            
     e( 45 - 45) =     45.58276  eV     1   --> A''            
     e( 46 - 47) =     45.65456  eV     2   --> A'             
     e( 46 - 47) =     45.65456  eV     2   --> A''            
     e( 48 - 48) =     45.65648  eV     1   -->   ?

 **************************************************************************

 **************************************************************************

                    xk=(  -0.03333,   0.00000,  -0.03333  )

     Band symmetry, C_s (m)     point group:

     e(  1 -  1) =     -8.12160  eV     1   --> A'             
     e(  2 -  3) =      0.02452  eV     2   --> A'             
     e(  2 -  3) =      0.02452  eV     2   --> A''            
     e(  4 -  4) =      0.55237  eV     1   --> A'             
     e(  5 -  5) =      0.56293  eV     1   --> A'             
     e(  6 -  7) =      1.08727  eV     2   --> A'             
     e(  6 -  7) =      1.08727  eV     2   --> A''            
     e(  8 -  8) =      6.88589  eV     1   --> A'             
     e(  9 - 10) =      6.98008  eV     2   --> A'             
     e(  9 - 10) =      6.98008  eV     2   --> A''            
     e( 11 - 12) =      6.98203  eV     2   --> A'             
     e( 11 - 12) =      6.98203  eV     2   --> A''            
     e( 13 - 13) =      7.01124  eV     1   --> A''            
     e( 14 - 14) =     13.15369  eV     1   --> A'             
     e( 15 - 15) =     13.19065  eV     1   --> A'             
     e( 16 - 16) =     13.26561  eV     1   --> A''            
     e( 17 - 18) =     17.95921  eV     2   --> A'             
     e( 17 - 18) =     17.95921  eV     2   --> A''            
     e( 19 - 19) =     18.08585  eV     1   --> A'             
     e( 20 - 20) =     18.22140  eV     1   --> A'             
     e( 21 - 22) =     18.28801  eV     2   --> A'             
     e( 21 - 22) =     18.28801  eV     2   --> A''            
     e( 23 - 23) =     18.89787  eV     1   --> A''            
     e( 24 - 24) =     18.94493  eV     1   --> A'             
     e( 25 - 25) =     18.98047  eV     1   --> A'             
     e( 26 - 26) =     26.56644  eV     1   --> A'             
     e( 27 - 28) =     29.96981  eV     2   --> A'             
     e( 27 - 28) =     29.96981  eV     2   --> A''            
     e( 29 - 29) =     29.97696  eV     1   --> A''            
     e( 30 - 31) =     29.97887  eV     2   --> A'             
     e( 30 - 31) =     29.97887  eV     2   --> A''            
     e( 32 - 32) =     30.00113  eV     1   --> A'             
     e( 33 - 33) =     32.57907  eV     1   --> A'             
     e( 34 - 35) =     36.28823  eV     2   --> A'             
     e( 34 - 35) =     36.28823  eV     2   --> A''            
     e( 36 - 36) =     36.30654  eV     1   --> A'             
     e( 37 - 37) =     36.46456  eV     1   --> A'             
     e( 38 - 39) =     36.51491  eV     2   --> A'             
     e( 38 - 39) =     36.51491  eV     2   --> A''            
     e( 40 - 40) =     39.13451  eV     1   --> A''            
     e( 41 - 41) =     39.55100  eV     1   --> A'             
     e( 42 - 42) =     40.87448  eV     1   --> A'             
     e( 43 - 43) =     41.12498  eV     1   --> A'             
     e( 44 - 44) =     41.69074  eV     1   --> A''            
     e( 45 - 45) =     45.36798  eV     1   --> A''            
     e( 46 - 47) =     45.63870  eV     2   --> A'             
     e( 46 - 47) =     45.63870  eV     2   --> A''            
     e( 48 - 48) =     45.65395  eV     1   --> A''            

 **************************************************************************

 **************************************************************************

                    xk=(  -0.05000,   0.00000,  -0.05000  )

     Band symmetry, C_s (m)     point group:

     e(  1 -  1) =     -8.09603  eV     1   --> A'             
     e(  2 -  3) =     -0.22552  eV     2   --> A'             
     e(  2 -  3) =     -0.22552  eV     2   --> A''            
     e(  4 -  4) =      0.56177  eV     1   --> A'             
     e(  5 -  5) =      0.58587  eV     1   --> A'             
     e(  6 -  7) =      1.36532  eV     2   --> A'             
     e(  6 -  7) =      1.36532  eV     2   --> A''            
     e(  8 -  8) =      6.75556  eV     1   --> A'             
     e(  9 - 10) =      6.96200  eV     2   --> A'             
     e(  9 - 10) =      6.96200  eV     2   --> A''            
     e( 11 - 12) =      6.96862  eV     2   --> A'             
     e( 11 - 12) =      6.96862  eV     2   --> A''            
     e( 13 - 13) =      7.03263  eV     1   --> A''            
     e( 14 - 14) =     13.00524  eV     1   --> A'             
     e( 15 - 15) =     13.08445  eV     1   --> A'             
     e( 16 - 16) =     13.24987  eV     1   --> A''            
     e( 17 - 18) =     17.94528  eV     2   --> A'             
     e( 17 - 18) =     17.94528  eV     2   --> A''            
[...]
     e( 41 - 41) =     38.40665  eV     1   --> A'             
     e( 42 - 42) =     40.41924  eV     1   --> A'             
     e( 43 - 43) =     42.73417  eV     1   --> A'             
     e( 44 - 44) =     43.34532  eV     1   --> A''            
     e( 45 - 45) =     44.48698  eV     1   --> A''            
     e( 46 - 47) =     44.91377  eV     2   --> A'             
     e( 46 - 47) =     44.91377  eV     2   --> A''            
     e( 48 - 48) =     46.11300  eV     1   -->   ?

 **************************************************************************

 **************************************************************************

                    xk=(  -0.06250,   0.04167,  -0.06250  )

     Band symmetry, C_s (m)     point group:

     e(  1 -  1) =     -8.05417  eV     1   --> A'             
     e(  2 -  3) =     -0.39680  eV     2   --> A'             
     e(  2 -  3) =     -0.39680  eV     2   --> A''            
     e(  4 -  4) =     -0.06237  eV     1   --> A'             
     e(  5 -  5) =      1.25595  eV     1   --> A'             
     e(  6 -  7) =      1.58355  eV     2   --> A'             
     e(  6 -  7) =      1.58355  eV     2   --> A''            
     e(  8 -  8) =      6.64599  eV     1   --> A'             
     e(  9 - 10) =      6.77540  eV     2   --> A'             
     e(  9 - 10) =      6.77540  eV     2   --> A''            
     e( 11 - 12) =      7.06037  eV     2   --> A'             
     e( 11 - 12) =      7.06037  eV     2   --> A''            
     e( 13 - 13) =      7.06982  eV     1   --> A''            
     e( 14 - 14) =     12.68704  eV     1   --> A'             
     e( 15 - 15) =     13.06370  eV     1   --> A'             
     e( 16 - 16) =     13.16862  eV     1   --> A''            
     e( 17 - 18) =     17.97941  eV     2   --> A'             
     e( 17 - 18) =     17.97941  eV     2   --> A''            
     e( 19 - 19) =     18.07021  eV     1   --> A'             
     e( 20 - 21) =     18.66521  eV     2   --> A'             
     e( 20 - 21) =     18.66521  eV     2   --> A''            
     e( 22 - 22) =     18.68457  eV     1   --> A'             
     e( 23 - 23) =     19.02827  eV     1   --> A''            
     e( 24 - 24) =     19.12457  eV     1   --> A'             
     e( 25 - 25) =     19.25269  eV     1   --> A'             
     e( 26 - 26) =     26.62436  eV     1   --> A'             
     e( 27 - 28) =     29.77869  eV     2   --> A'             
     e( 27 - 28) =     29.77869  eV     2   --> A''            
     e( 29 - 29) =     29.79787  eV     1   --> A''            
     e( 30 - 31) =     29.84076  eV     2   --> A'             
     e( 30 - 31) =     29.84076  eV     2   --> A''            
     e( 32 - 32) =     29.88020  eV     1   --> A'             
     e( 33 - 33) =     32.69494  eV     1   --> A'             
     e( 34 - 34) =     35.96975  eV     1   --> A'             
     e( 35 - 36) =     36.03550  eV     2   --> A'             
     e( 35 - 36) =     36.03550  eV     2   --> A''            
     e( 37 - 38) =     36.53016  eV     2   --> A'             
     e( 37 - 38) =     36.53016  eV     2   --> A''            
     e( 39 - 39) =     36.53737  eV     1   --> A'             
     e( 40 - 40) =     38.27034  eV     1   --> A''            
     e( 41 - 41) =     38.68414  eV     1   --> A'             
     e( 42 - 42) =     40.52926  eV     1   --> A'             
     e( 43 - 43) =     42.33249  eV     1   --> A'             
     e( 44 - 44) =     42.83035  eV     1   --> A''            
     e( 45 - 45) =     44.79613  eV     1   --> A''            
     e( 46 - 47) =     45.11854  eV     2   --> A'             
     e( 46 - 47) =     45.11854  eV     2   --> A''            
     e( 48 - 48) =     45.98835  eV     1   -->   ?

 **************************************************************************

 **************************************************************************

                    xk=(  -0.05000,   0.03333,  -0.05000  )

     Band symmetry, C_s (m)     point group:

     e(  1 -  1) =     -8.08580  eV     1   --> A'             
     e(  2 -  3) =     -0.21823  eV     2   --> A'             
     e(  2 -  3) =     -0.21823  eV     2   --> A''            
     e(  4 -  4) =      0.04923  eV     1   --> A'             
     e(  5 -  5) =      1.10753  eV     1   --> A'             
     e(  6 -  7) =      1.37064  eV     2   --> A'             
     e(  6 -  7) =      1.37064  eV     2   --> A''            
     e(  8 -  8) =      6.76622  eV     1   --> A'             
     e(  9 - 10) =      6.85118  eV     2   --> A'             
     e(  9 - 10) =      6.85118  eV     2   --> A''            
     e( 11 - 12) =      7.03651  eV     2   --> A'             
     e( 11 - 12) =      7.03651  eV     2   --> A''            
     e( 13 - 13) =      7.04260  eV     1   --> A''            
     e( 14 - 14) =     12.88945  eV     1   --> A'             
     e( 15 - 15) =     13.13818  eV     1   --> A'             
     e( 16 - 16) =     13.20721  eV     1   --> A''            
     e( 17 - 18) =     17.96714  eV     2   --> A'             
     e( 17 - 18) =     17.96714  eV     2   --> A''            
     e( 19 - 19) =     18.04718  eV     1   --> A'             
     e( 20 - 20) =     18.49020  eV     1   --> A'             
     e( 21 - 22) =     18.49762  eV     2   --> A'             
     e( 21 - 22) =     18.49762  eV     2   --> A''            
     e( 23 - 23) =     18.97495  eV     1   --> A''            
     e( 24 - 24) =     19.03851  eV     1   --> A'             
     e( 25 - 25) =     19.12763  eV     1   --> A'             
     e( 26 - 26) =     26.59735  eV     1   --> A'             
     e( 27 - 28) =     29.86892  eV     2   --> A'             
     e( 27 - 28) =     29.86892  eV     2   --> A''            
     e( 29 - 29) =     29.88010  eV     1   --> A''            
     e( 30 - 31) =     29.90752  eV     2   --> A'             
     e( 30 - 31) =     29.90752  eV     2   --> A''            
     e( 32 - 32) =     29.93343  eV     1   --> A'             
     e( 33 - 33) =     32.64130  eV     1   --> A'             
     e( 34 - 34) =     36.11841  eV     1   --> A'             
     e( 35 - 36) =     36.14394  eV     2   --> A'             
     e( 35 - 36) =     36.14394  eV     2   --> A''            
     e( 37 - 37) =     36.51410  eV     1   --> A'             
     e( 38 - 39) =     36.52720  eV     2   --> A'             
     e( 38 - 39) =     36.52720  eV     2   --> A''            
     e( 40 - 40) =     38.63855  eV     1   --> A''            
     e( 41 - 41) =     38.97092  eV     1   --> A'             
     e( 42 - 42) =     40.62793  eV     1   --> A'             
     e( 43 - 43) =     41.94500  eV     1   --> A'             
     e( 44 - 44) =     42.33177  eV     1   --> A''            
     e( 45 - 45) =     45.07627  eV     1   --> A''            
     e( 46 - 47) =     45.29968  eV     2   --> A'             
     e( 46 - 47) =     45.29968  eV     2   --> A''            
     e( 48 - 48) =     45.87720  eV     1   -->   ?

 **************************************************************************

 **************************************************************************

                    xk=(  -0.03750,   0.02500,  -0.03750  )

     Band symmetry, C_s (m)     point group:

     e(  1 -  1) =     -8.11041  eV     1   --> A'             
     e(  2 -  3) =     -0.03461  eV     2   --> A'             
     e(  2 -  3) =     -0.03461  eV     2   --> A''            
     e(  4 -  4) =      0.16584  eV     1   --> A'             
     e(  5 -  5) =      0.96163  eV     1   --> A'             
     e(  6 -  7) =      1.15964  eV     2   --> A'             
     e(  6 -  7) =      1.15964  eV     2   --> A''            
     e(  8 -  8) =      6.86359  eV     1   --> A'             
     e(  9 - 10) =      6.91239  eV     2   --> A'             
     e(  9 - 10) =      6.91239  eV     2   --> A''            
     e( 11 - 12) =      7.01795  eV     2   --> A'             
     e( 11 - 12) =      7.01795  eV     2   --> A''            
     e( 13 - 13) =      7.02141  eV     1   --> A''            
     e( 14 - 14) =     13.05448  eV     1   --> A'             
     e( 15 - 15) =     13.19816  eV     1   --> A'             
     e( 16 - 16) =     13.23787  eV     1   --> A''            
     e( 17 - 18) =     17.96829  eV     2   --> A'             
     e( 17 - 18) =     17.96829  eV     2   --> A''            
     e( 19 - 19) =     18.03290  eV     1   --> A'             
     e( 20 - 20) =     18.33201  eV     1   --> A'             
     e( 21 - 22) =     18.35474  eV     2   --> A'             
     e( 21 - 22) =     18.35474  eV     2   --> A''            
     e( 23 - 23) =     18.93263  eV     1   --> A''            
     e( 24 - 24) =     18.96927  eV     1   --> A'             
     e( 25 - 25) =     19.02291  eV     1   --> A'             
     e( 26 - 26) =     26.57620  eV     1   --> A'             
     e( 27 - 28) =     29.93869  eV     2   --> A'             
     e( 27 - 28) =     29.93869  eV     2   --> A''            
     e( 29 - 29) =     29.94447  eV     1   --> A''            
     e( 30 - 31) =     29.95988  eV     2   --> A'             
     e( 30 - 31) =     29.95988  eV     2   --> A''            
     e( 32 - 32) =     29.97476  eV     1   --> A'             
     e( 33 - 33) =     32.59867  eV     1   --> A'             
     e( 34 - 35) =     36.23910  eV     2   --> A'             
     e( 34 - 35) =     36.23910  eV     2   --> A''            
     e( 36 - 36) =     36.24046  eV     1   --> A'             
     e( 37 - 37) =     36.49442  eV     1   --> A'             
     e( 38 - 39) =     36.51808  eV     2   --> A'             
     e( 38 - 39) =     36.51808  eV     2   --> A''            
     e( 40 - 40) =     39.01579  eV     1   --> A''            
     e( 41 - 41) =     39.26240  eV     1   --> A'             
     e( 42 - 42) =     40.71080  eV     1   --> A'             
     e( 43 - 43) =     41.57580  eV     1   --> A'             
     e( 44 - 44) =     41.85328  eV     1   --> A''            
     e( 45 - 45) =     45.31548  eV     1   --> A''            
     e( 46 - 47) =     45.45035  eV     2   --> A'             
     e( 46 - 47) =     45.45035  eV     2   --> A''            
     e( 48 - 48) =     45.78488  eV     1   --> A''            

 **************************************************************************

 **************************************************************************

                    xk=(  -0.02500,   0.01667,  -0.02500  )

     Band symmetry, C_s (m)     point group:

     e(  1 -  1) =     -8.12800  eV     1   --> A'             
     e(  2 -  3) =      0.15389  eV     2   --> A'             
     e(  2 -  3) =      0.15389  eV     2   --> A''            
     e(  4 -  4) =      0.28739  eV     1   --> A'             
     e(  5 -  5) =      0.81886  eV     1   --> A'             
     e(  6 -  7) =      0.95127  eV     2   --> A'             
     e(  6 -  7) =      0.95127  eV     2   --> A''            
     e(  8 -  8) =      6.93532  eV     1   --> A'             
     e(  9 - 10) =      6.95734  eV     2   --> A'             
     e(  9 - 10) =      6.95734  eV     2   --> A''            
     e( 11 - 12) =      7.00469  eV     2   --> A'             
     e( 11 - 12) =      7.00469  eV     2   --> A''            
     e( 13 - 13) =      7.00623  eV     1   --> A''            
     e( 14 - 14) =     13.17701  eV     1   --> A'             
     e( 15 - 15) =     13.24219  eV     1   --> A'             
     e( 16 - 16) =     13.26013  eV     1   --> A''            
     e( 17 - 18) =     17.98445  eV     2   --> A'             
     e( 17 - 18) =     17.98445  eV     2   --> A''            
     e( 19 - 19) =     18.02925  eV     1   --> A'             
     e( 20 - 20) =     18.21047  eV     1   --> A'             
     e( 21 - 22) =     18.23633  eV     2   --> A'             
     e( 21 - 22) =     18.23633  eV     2   --> A''            
     e( 23 - 23) =     18.90192  eV     1   --> A''            
     e( 24 - 24) =     18.91850  eV     1   --> A'             
     e( 25 - 25) =     18.94358  eV     1   --> A'             
     e( 26 - 26) =     26.56104  eV     1   --> A'             
     e( 27 - 28) =     29.98827  eV     2   --> A'             
     e( 27 - 28) =     29.98827  eV     2   --> A''            
     e( 29 - 29) =     29.99067  eV     1   --> A''            
     e( 30 - 31) =     29.99750  eV     2   --> A'             
     e( 30 - 31) =     29.99750  eV     2   --> A''            
     e( 32 - 32) =     30.00421  eV     1   --> A'             
     e( 33 - 33) =     32.56773  eV     1   --> A'             
     e( 34 - 35) =     36.31973  eV     2   --> A'             
     e( 34 - 35) =     36.31973  eV     2   --> A''            
     e( 36 - 36) =     36.33348  eV     1   --> A'             
     e( 37 - 37) =     36.47734  eV     1   --> A'             
     e( 38 - 39) =     36.50118  eV     2   --> A'             
     e( 38 - 39) =     36.50118  eV     2   --> A''            
     e( 40 - 40) =     39.39262  eV     1   --> A''            
     e( 41 - 41) =     39.54803  eV     1   --> A'             
     e( 42 - 42) =     40.77366  eV     1   --> A'             
     e( 43 - 43) =     41.23500  eV     1   --> A'             
     e( 44 - 44) =     41.40420  eV     1   --> A''            
     e( 45 - 45) =     45.50040  eV     1   --> A''            
     e( 46 - 47) =     45.56383  eV     2   --> A'             
     e( 46 - 47) =     45.56383  eV     2   --> A''            
     e( 48 - 48) =     45.71568  eV     1   --> A''            

 **************************************************************************

 **************************************************************************

                    xk=(  -0.01250,   0.00833,  -0.01250  )

     Band symmetry, C_s (m)     point group:

     e(  1 -  1) =     -8.13855  eV     1   --> A'             
     e(  2 -  3) =      0.34704  eV     2   --> A'             
     e(  2 -  3) =      0.34704  eV     2   --> A''            
     e(  4 -  4) =      0.41370  eV     1   --> A'             
     e(  5 -  5) =      0.67971  eV     1   --> A'             
     e(  6 -  7) =      0.74609  eV     2   --> A'             
     e(  6 -  7) =      0.74609  eV     2   --> A''            
     e(  8 -  8) =      6.97928  eV     1   --> A'             
     e(  9 - 10) =      6.98483  eV     2   --> A'             
     e(  9 - 10) =      6.98483  eV     2   --> A''            
     e( 11 - 12) =      6.99673  eV     2   --> A'             
     e( 11 - 12) =      6.99673  eV     2   --> A''            
     e( 13 - 13) =      6.99712  eV     1   --> A''            
     e( 14 - 14) =     13.25260  eV     1   --> A'             
     e( 15 - 15) =     13.26910  eV     1   --> A'             
     e( 16 - 16) =     13.27363  eV     1   --> A''            
     e( 17 - 18) =     18.01746  eV     2   --> A'             
     e( 17 - 18) =     18.01746  eV     2   --> A''            
     e( 19 - 19) =     18.03966  eV     1   --> A'             
     e( 20 - 20) =     18.12419  eV     1   --> A'             
     e( 21 - 22) =     18.14161  eV     2   --> A'             
     e( 21 - 22) =     18.14161  eV     2   --> A''            
     e( 23 - 23) =     18.88330  eV     1   --> A''            
     e( 24 - 24) =     18.88750  eV     1   --> A'             
     e( 25 - 25) =     18.89396  eV     1   --> A'             
     e( 26 - 26) =     26.55192  eV     1   --> A'             
     e( 27 - 28) =     30.01791  eV     2   --> A'             
     e( 27 - 28) =     30.01791  eV     2   --> A''            
     e( 29 - 29) =     30.01849  eV     1   --> A''            
     e( 30 - 31) =     30.02018  eV     2   --> A'             
     e( 30 - 31) =     30.02018  eV     2   --> A''            
     e( 32 - 32) =     30.02188  eV     1   --> A'             
     e( 33 - 33) =     32.54898  eV     1   --> A'             
     e( 34 - 35) =     36.38544  eV     2   --> A'             
     e( 34 - 35) =     36.38544  eV     2   --> A''            
     e( 36 - 36) =     36.39747  eV     1   --> A'             
     e( 37 - 37) =     36.46012  eV     1   --> A'             
     e( 38 - 39) =     36.47469  eV     2   --> A'             
     e( 38 - 39) =     36.47469  eV     2   --> A''            
     e( 40 - 40) =     39.73678  eV     1   --> A''            
     e( 41 - 41) =     39.79667  eV     1   --> A'             
     e( 42 - 42) =     40.81297  eV     1   --> A'             
     e( 43 - 43) =     40.95339  eV     1   --> A'             
     e( 44 - 44) =     41.01673  eV     1   --> A''            
     e( 45 - 45) =     45.61801  eV     1   --> A''            
     e( 46 - 47) =     45.63445  eV     2   --> A'             
     e( 46 - 47) =     45.63445  eV     2   --> A''            
     e( 48 - 48) =     45.67292  eV     1   --> A''            

 **************************************************************************

 **************************************************************************

                    xk=(   0.00000,   0.00000,   0.00000  )

     point group T_d (-43m) 
     there are  5 classes
     the character table:

       E     8C3   3C2   6S4   6s_d 
A_1    1.00  1.00  1.00  1.00  1.00
A_2    1.00  1.00  1.00 -1.00 -1.00
E      2.00 -1.00  2.00  0.00  0.00
T_1    3.00  0.00 -1.00  1.00 -1.00
T_2    3.00  0.00 -1.00 -1.00  1.00

     the symmetry operations in each class and the name of the first element:

     E        1
                                                                 
     8C3      5    7    8    6   12    9   10   11
                                                                 
     3C2      2    3    4
                                                                 
     6S4     15   16   20   19   23   24
                                                                 
     6s_d    13   14   17   18   21   22
                                                                 

     Band symmetry, T_d (-43m)  point group:

     e(  1 -  1) =     -8.14207  eV     1   --> A_1  G_1  P_1  
     e(  2 -  7) =      0.54452  eV     6   --> A_1  G_1  P_1  
     e(  2 -  7) =      0.54452  eV     6   --> E    G_12 P_3  
     e(  2 -  7) =      0.54452  eV     6   --> T_2  G_15 P_4  
     e(  8 - 13) =      6.99408  eV     6   --> T_1  G_25 P_5  
     e(  8 - 13) =      6.99408  eV     6   --> T_2  G_15 P_4  
     e( 14 - 16) =     13.27816  eV     3   --> T_2  G_15 P_4  
     e( 17 - 22) =     18.06920  eV     6   --> A_1  G_1  P_1  
     e( 17 - 22) =     18.06920  eV     6   --> E    G_12 P_3  
     e( 17 - 22) =     18.06920  eV     6   --> T_2  G_15 P_4  
     e( 23 - 25) =     18.87706  eV     3   --> T_2  G_15 P_4  
     e( 26 - 26) =     26.54887  eV     1   --> A_1  G_1  P_1  
     e( 27 - 32) =     30.02776  eV     6   --> T_1  G_25 P_5  
     e( 27 - 32) =     30.02776  eV     6   --> T_2  G_15 P_4  
     e( 33 - 33) =     32.54269  eV     1   --> A_1  G_1  P_1  
     e( 34 - 39) =     36.43669  eV     6   --> A_1  G_1  P_1  
     e( 34 - 39) =     36.43669  eV     6   --> E    G_12 P_3  
     e( 34 - 39) =     36.43669  eV     6   --> T_2  G_15 P_4  
     e( 40 - 41) =     39.91274  eV     2   --> E    G_12 P_3  
     e( 42 - 44) =     40.82635  eV     3   --> T_2  G_15 P_4  
     e( 45 - 48) =     45.65843  eV     4   -->   ?

 **************************************************************************
 
     BANDS        :      6.75s CPU      9.71s WALL

 
   This run was terminated on:  14:57:50  22Nov2024            

=------------------------------------------------------------------------------=
   JOB DONE.
=------------------------------------------------------------------------------=
